default_name
 48371
  41.8753036  23.9887400  66.8067414  41.2810955  24.1802898  65.9132509
  40.9162963  23.2358268  65.5095065  41.8978837  24.6800742  65.1663327
  40.0960955  25.0602898  66.2272509  39.8710955  25.4802898  67.3512509
  39.3520955  25.3402898  65.1452509  39.4661018  24.8383535  64.2762504
  38.3490955  26.4222898  65.2022509  37.5958532  26.2110421  65.9612632
  39.0650955  27.7362898  65.5712509  38.3219829  28.5311591  65.5074879
  39.4902575  27.7167393  66.5747224  40.1900955  28.1182898  64.6312509
  40.5730955  27.4812898  63.5202509  39.9412614  26.6289846  63.2703284
  41.6680955  28.0252898  62.9322509  42.1891274  27.7435552  62.1141734
  41.9870955  29.0682898  63.7562509  43.0940955  29.8852898  63.6222509
  43.7580807  29.7553654  62.7676505  43.2790955  30.8172898  64.5932509
  44.1753775  31.4366933  64.5598187  42.3610955  31.0082898  65.6312509
  42.4985821  31.7973503  66.3705617  41.2630955  30.2072898  65.7462509
  40.5809335  30.3471252  66.5848221  41.1040955  29.2002898  64.8002509
  37.6060955  26.6252898  63.9002509  38.0860955  26.3722898  62.8062509
  36.3840955  27.1392898  64.0862509  35.9735676  27.2244107  65.0051201
  35.6230955  27.6432898  62.9332509  36.0223225  27.2679507  61.9909996
  34.1920955  27.1032898  63.1112509  34.2195540  26.0897667  63.5113961
  33.4540955  28.0232898  64.0972509  33.4258252  29.0369669  63.6975504
  32.4360068  27.6611962  64.2403738  33.9764377  28.0249558  65.0539418
  33.4200955  27.0872898  61.7792509  33.9407002  26.4498268  61.0646085
  32.4149528  26.6999691  61.9458958  33.3573117  28.1007314  61.3828986
  35.5410955  29.1582898  62.8742509  34.9820955  29.7582898  61.9702509
  36.0940955  29.7592898  63.9392509  36.5721045  29.2310135  64.6551635
  35.8530955  31.1932898  64.1732509  34.7812650  31.3802029  64.1073563
  36.3630955  31.7172898  65.5352509  36.0383665  31.0133392  66.3014786
  37.8950955  31.8682898  65.5932509  38.2205470  32.5724928  64.8275623
  38.1871703  32.2397356  66.5755031  38.3630861  30.8996330  65.4177816
  35.7720955  32.9962898  65.8092509  36.0894197  33.3207902  66.6551854
  36.3580955  32.0492898  63.0342509  35.7380955  33.0062898  62.5942509
  37.5310955  31.6122898  62.5522509  38.0707837  30.8973591  63.0188449
  38.1380955  32.3092898  61.4112509  37.6360948  33.2602850  61.2331986
  39.6210955  32.5862898  61.7232509  40.0995012  31.6730293  62.0770622
  40.1622380  32.9672506  60.8571483  39.7840955  33.6142898  62.8222509
  38.7640955  34.3892898  63.3102509  39.2370955  35.1562898  64.2752509
  38.5605232  35.8421864  64.7850497  40.5320955  34.9242898  64.4452509
  41.1785445  35.3473848  65.0957846  40.8590955  33.9492898  63.5262509
  41.8815968  33.5761945  63.4680095  37.8940955  31.5772898  60.1062509
  38.5400955  31.7692898  59.0872509  36.8770955  30.7072898  60.2082509
  36.5496852  30.3977358  61.1121746  36.2900955  30.0952898  59.0072509
  37.0449791  30.2138739  58.2299558  35.8470955  28.6132898  59.0442509
  35.2510937  28.4682758  59.9452792  35.2275565  28.4308937  58.1661830
  37.0350955  27.6272898  59.0492509  37.8083484  28.0404022  58.4015481
  37.4104084  27.5694016  60.0709608  36.6560955  26.2142898  58.5602509
  36.3079816  26.3125128  57.5320155  37.5648997  25.6127956  58.5797208
  35.6270955  25.5322898  59.3392509  34.6777088  25.5486979  58.9950198
  35.8810955  24.8912898  60.5082509  37.0950955  24.9052898  61.1032509
  37.8584000  25.4089900  60.6745876  37.2331840  24.4119833  61.9736990
  34.8880955  24.1942898  61.1032509  33.9740716  24.1578602  60.6750765
  35.0643866  23.7128974  61.9734701  35.1170955  30.9332898  58.5632509
  35.0550955  31.3682898  57.4262509  33.8390955  33.4552898  58.7962509
  33.4370955  34.0902898  57.8372509  33.1660955  32.1872898  59.2982509
  32.2440955  31.5022898  58.2632509  32.2730955  32.5562898  60.5132509
  31.6440955  33.9712898  60.3982509  32.4400955  35.0202898  61.2032509
  32.7800955  36.3392898  60.5312509  32.3000955  37.0232898  59.5092509
  31.0920955  36.8032898  58.6342509  34.2160955  31.1852898  59.5342509
  31.7046894  32.2128588  57.6577353  31.5250376  30.8646901  58.7619582
  32.8465580  30.8889272  57.6028415  32.9114203  32.5264391  61.3944719
  31.4861885  31.8265819  60.6521853  30.6248027  33.9448378  60.7616812
  31.6100122  34.3043648  59.3660666  33.3595506  34.5608853  61.5650020
  31.8222503  35.1955321  62.0773999  33.6211075  36.7661548  61.0561777
  32.8419442  37.9130406  59.2331503  30.6818777  37.7657828  58.3371147
  30.3219135  36.3240931  59.2208986  34.2092172  30.7676288  60.4360189
  34.9010955  33.8112898  59.5402509  35.2418937  33.2416628  60.3014873
  35.4840955  35.1502898  59.3552509  34.6049295  35.7641944  59.1595789
  36.1800955  35.6772898  60.6262509  37.0675876  35.0781970  60.8300781
  36.4706945  36.7172306  60.4773360  35.4947079  35.6095077  61.4710874
  36.3970955  35.2772898  58.1582509  36.3810955  36.2432898  57.4082509
  37.1850955  34.2052898  57.9952509  37.2437501  33.4627682  58.6773950
  38.0000955  34.0982898  56.7772509  38.6322767  34.9820478  56.6911232
  38.6268134  33.2089248  56.8432340  37.1270955  33.9952898  55.5452509
  37.4700955  34.3972898  54.4452509  35.9360955  33.4372898  55.8122509
  35.7024763  33.0897939  56.7313635  34.9390955  33.3042898  54.7442509
  35.4454331  32.9420120  53.8495575  33.7930955  32.3382898  55.0852509
  34.2612824  31.3547285  55.0464251  33.4093258  32.5180459  56.0894962
  32.6280955  32.3942898  54.0712509  32.4975274  33.4275751  53.7497322
  32.9090955  31.5082898  52.8462509  33.0393273  30.4747070  53.1669455
  32.0706175  31.5700189  52.1525327  33.8168108  31.8512161  52.3497080
  31.3210955  32.0132898  54.7852509  31.1330581  32.7142817  55.5984863
  30.4945789  32.0506787  54.0756216  31.4076056  31.0043777  55.1886258
  34.2860955  34.6152898  54.3872509  34.1210955  34.9482898  53.2282509
  34.0250955  37.5692898  54.5422509  33.6170955  38.4872898  53.8462509
  33.1160955  36.5722898  55.2422509  31.8920955  36.2622898  54.3522509
  32.6150955  37.1732898  56.5742509  31.4560955  36.3642898  57.2052509
  33.8590955  35.3182898  55.4482509  31.4037968  37.1556080  53.9971971
  31.1673560  35.6725365  54.8992704  32.2166596  35.6925393  53.4889098
  32.2617510  38.1789149  56.3534208  33.4219642  37.2579635  57.2903460
  30.7168369  37.0449124  57.6077290  31.8293108  35.7680156  58.0314908
  34.0208045  35.0717801  56.3973329  35.3250955  37.2732898  54.7112509
  35.6212845  36.5937487  55.3972503  36.3540955  37.9302898  53.8912509
  36.0278714  38.9297680  53.6036394  37.6530955  38.0522898  54.7022509
  37.5042422  38.7333937  55.5401288  37.9481960  37.0728995  55.0788279
  38.6850955  38.5662898  53.8452509  39.5027169  38.6469348  54.3418306
  36.6900955  37.1722898  52.6172509  37.8080955  37.1392898  52.1192509
  35.6230955  36.5512898  52.0992509  34.7228224  36.6007117  52.5544050
  35.7560955  35.6992898  50.9062509  36.5501462  36.1116966  50.2837533
  36.0920955  34.2232898  51.2222509  36.9453025  34.2110620  51.9004747
  35.2280230  33.7811106  51.7181907  36.4310955  33.4072898  49.9532509
  35.9668414  33.9066888  49.1028570  37.5142893  33.4157618  49.8319196
  35.9320955  31.9442898  50.0272509  34.8442264  31.9660596  50.0917944
  36.2309672  31.4432343  49.1065346  36.4530955  31.1872898  51.1622509
  35.9662405  31.2539596  52.0446492  37.5500955  30.3952898  51.0872509
  38.3770955  30.3972898  50.0192509  38.1853197  31.0067902  49.2370544
  39.1834974  29.7892748  50.0077070  37.8350955  29.5772898  52.1222509
  37.2329460  29.5651815  52.9330341  38.6492312  28.9809628  52.0813126
  34.5050955  35.7702898  50.0552509  34.5430955  36.1032898  48.8872509
  33.3790955  35.4232898  50.6962509  33.3935164  35.1254356  51.6612246
  32.0890955  35.4452898  49.9932509  32.1844665  35.7132568  48.9410165
  31.5870955  33.9972898  50.0872509  31.4832795  33.7100125  51.1335746
  30.6216589  33.9084610  49.5891126  32.5370955  33.1332898  49.4462509
  32.2309560  32.2250203  49.5003334  31.0750955  36.4052898  50.5762509
  29.8700955  36.2972898  50.4042509  31.6450955  37.3802898  51.2992509
  32.6444867  37.4525602  51.4261112  30.7860955  38.3902898  51.9372509
  29.9712559  37.8706605  52.4413551  31.3849867  38.9264203  52.6734525
  30.2050955  39.3832898  50.9592509  29.1310955  39.9382898  51.1322509
  30.9790955  39.5572898  49.8782509  31.8557796  39.0728712  49.7483934
  30.5380955  40.4922898  48.8332509  30.1378175  41.3731324  49.3352399
  31.4197551  40.7724789  48.2568225  29.4900955  39.9432898  47.8932509
  29.0520955  40.5962898  46.9592509  29.1050955  38.6952898  48.2022509
  29.6090536  38.1361228  48.8756437  28.0200955  38.0562898  47.4352509
  28.2415643  38.0866821  46.3684205  27.8300955  36.5792898  47.8592509
  27.8026533  36.5349205  48.9480013  26.5270955  35.9862898  47.2882509
  26.5539992  36.0298921  46.1994552  26.4290165  34.9487136  47.6074947
  25.6754610  36.5602927  47.6534098  29.0140955  35.7132898  47.3782509
  29.9397910  36.0874147  47.8155385  28.8583482  34.6798283  47.6877664
  29.0813281  35.7603007  46.2913421  26.7260955  38.8472898  47.4942509
  25.8620955  38.7842898  46.6302509  26.6420955  39.6262898  48.5832509
  27.3344414  39.6011345  49.3181819  25.4700955  40.4962898  48.7592509
  24.8513282  40.4797693  47.8620590  24.6150955  40.0272898  49.9572509
  25.2423302  39.9928571  50.8480315  23.4400955  40.9942898  50.1942509
  22.8121108  41.0289019  49.3040048  22.8489968  40.6477688  51.0419690
  23.8263895  41.9915697  50.4047533  24.0540955  38.6142898  49.7022509
  24.8786151  37.9153356  49.5617786  23.4545920  38.3011058  50.5570088
  23.4318388  38.6258874  48.8073973  25.8950955  41.9422898  48.9352509
  26.3300955  42.3942898  49.9852509  25.7190955  42.6722898  47.8242509
  25.3065639  42.2821743  46.9889504  26.0610955  44.1012898  47.8302509
  26.0319807  44.4953213  48.8461203  27.4870955  44.2842898  47.2712509
  27.5156118  43.8496023  46.2720848  27.6893767  45.3534673  47.2076758
  28.5540955  43.6122898  48.1532509  28.4009973  43.9363222  49.1826511
  28.4206849  42.5323838  48.0891677  29.9850955  43.9812898  47.7052509
  30.0741567  45.0668328  47.7472438  30.6791299  43.5325539  48.4159208
  30.3210955  43.4922898  46.2792509  31.3046339  43.0224842  46.2851921
  29.5730583  42.7640799  45.9658025  30.3250955  44.6532898  45.3182509
  31.0184763  45.3279803  45.6082775  30.5457990  44.3213854  44.3902264
  29.4136919  45.0884989  45.3122761  25.1210955  44.8312898  46.8982509
  24.3370955  44.2452898  46.1662509  25.2730955  46.1642898  46.9282509
  25.6605670  46.6440441  47.7281265  24.8210955  46.9722898  45.7792509
  23.7865399  47.2821588  45.9268152  25.6990955  48.2352898  45.6362509
  25.7561449  48.5030844  44.5812008  25.2647699  49.0625586  46.1975776
  27.1030955  47.9862898  46.1492509  27.9050955  47.2562898  45.5882509
  27.3730955  48.6292898  47.2912509  28.2825961  48.5314716  47.7194330
  26.6661580  49.2095099  47.7198356  24.8460955  46.2072898  44.4692509
  23.9080955  46.1912898  43.6862509  26.0000955  45.5492898  44.2842509
  26.7570807  45.6046481  44.9505902  26.1780955  44.7062898  43.0992509
  25.2496524  44.2225144  42.7958468  26.6280955  45.6612898  41.9722509
  27.2200838  45.0960704  41.2524065  25.7391435  46.0562512  41.4804482
  27.4590955  46.8232898  42.4762509  27.0610955  47.9772898  42.4562509
  28.6580955  46.4552898  42.9422509  29.2924064  47.1536489  43.3028671
  28.9233983  45.4808182  42.9312774  27.2390955  43.6482898  43.3262509
  28.2670955  43.8642898  43.9472509  26.9640955  42.4752898  42.7412509
  26.0697532  42.2713637  42.3185626  27.9640955  41.4022898  42.8062509
  28.9477548  41.8176564  43.0253033  27.5880955  40.4062898  43.9262509
  27.6239310  40.9178492  44.8880835  26.5934971  39.9866482  43.7753367
  28.5460955  39.2302898  44.0232509  29.8140955  39.3972898  44.5362509
  30.1207388  40.3756821  44.9061404  30.6910955  38.3382898  44.5832509
  31.6933968  38.4768035  44.9885986  30.3020955  37.1042898  44.1182509
  30.9955273  36.2639369  44.1507954  29.0350955  36.9312898  43.6112509
  28.7255427  35.9525148  43.2448128  28.1590955  37.9912898  43.5662509
  27.1543275  37.8514099  43.1675343  28.0640955  40.7712898  41.4322509
  27.1810955  40.8952898  40.5972509  29.2150955  40.1132898  41.2312509
  29.9272358  40.0556980  41.9451407  29.4770955  39.4782898  39.9342509
  28.6053949  39.5307963  39.2819623  30.6560955  40.1962898  39.2412509
  31.5431662  40.1099978  39.8687526  30.9370955  39.5622898  37.8652509
  30.0505681  39.6486168  37.2369851  31.7705220  40.0793908  37.3897435
  31.1892550  38.5097350  37.9942688  30.3560955  41.6982898  39.0582509
  30.1909081  42.1577097  40.0328013  31.2015379  42.1811161  38.5681433
  29.4635498  41.8188938  38.4443145  29.7960955  38.0082898  40.1452509
  30.9320955  37.6282898  40.3932509  28.7450955  37.1742898  40.0162509
  27.3410955  37.6082898  39.9232509  27.0752489  37.8729344  38.8998306
  27.1443233  38.4557349  40.5799216  26.6470955  36.3262898  40.3992509
  25.6352442  36.2709120  39.9977670  26.6073985  36.2983666  41.4881704
  27.5270955  35.1972898  39.8552509  27.2978998  35.0200279  38.8044671
  27.4132948  34.2678701  40.4132186  28.9660955  35.7202898  39.9952509
  29.4187114  35.4453749  40.9479622  29.8590955  35.2582898  38.8602509
  30.4160955  36.0222898  38.0852509  29.9540955  33.9232898  38.7962509
  29.3605368  33.3189918  39.3463522  30.9640955  33.3042898  37.9272509
  31.5152721  34.0380331  37.3390976  31.9520955  32.5872898  38.8732509
  31.4024633  31.8785059  39.4926297  33.0130955  31.8402898  38.0632509
  33.5634883  32.5485308  37.4439271  33.7031770  31.3392616  38.7421156
  32.5297443  31.1000222  37.4256960  32.6080955  33.5262898  39.7382509
  33.2159128  33.0587519  40.3158032  30.3120955  32.3382898  36.9562509
  29.2800955  31.7402898  37.2202509  30.9560955  32.2382898  35.7812509
  31.7699331  32.7934148  35.5585318  30.4270955  31.3282898  34.7492509
  29.3388360  31.3097799  34.8079691  30.8360955  31.7822898  33.3352509
  30.7072521  32.8620199  33.2598751  31.8868261  31.5312771  33.1901377
  30.0050955  31.1012898  32.2742509  29.3190955  30.0802898  32.6332509
  30.0440955  31.6052898  31.1002509  30.8600955  29.8842898  34.9262509
  32.0320955  29.5402898  34.9762509  29.8240955  29.0332898  34.9872509
  28.8718759  29.3473345  34.8657887  30.0550955  27.6182898  35.3202509
  31.0679805  27.2958632  35.0789953  29.8140955  27.4012898  36.8352509
  29.9287102  26.3399468  37.0555094  30.8130955  28.2142898  37.6872509
  30.6987497  29.2758436  37.4678662  30.6161069  28.0391080  38.7448932
  31.8305497  27.9025667  37.4512061  28.3750955  27.7782898  37.2432509
  27.6667287  27.1604290  36.6913753  28.2448450  27.6124817  38.3126629
  28.1954033  28.8287438  37.0144321  29.1790955  26.7072898  34.4772509
  28.5630955  25.7462898  34.9142509  29.1390955  27.0902898  33.1932509
  29.7478836  27.8120583  32.8347448  28.1900955  26.4542898  32.2662509
  27.8740391  25.5019519  32.6919973  27.3241684  27.1067092  32.1539185
  28.8000955  26.2062898  30.9032509  29.9380955  26.5632898  30.6542509
  28.0020955  25.5712898  30.0202509  26.6060955  25.1732898  30.2602509
  26.1430332  25.7525580  31.0590762  26.5123548  24.1101633  30.4817768
  26.0530955  25.5332898  28.8742509  25.7853185  26.5896872  28.8537791
  25.1683104  24.9306792  28.6690258  27.1750955  25.2192898  27.8722509
  27.2932481  25.9484424  27.0707052  26.9362979  24.2455297  27.4446219
  28.4740955  25.1282898  28.6922509  28.8096044  24.1075125  28.8754057
  29.5480955  25.8842898  27.9412509  30.3330955  25.3292898  27.1862509
  29.5220955  27.2032898  28.1722509  28.8268068  27.6338053  28.7649814
  30.4590955  28.0752898  27.4512509  31.0522877  27.4871019  26.7510672
  29.6830955  29.1472898  26.6602509  29.1046766  29.7609213  27.3508935
  30.3622855  29.7827200  26.0918942  28.6920955  28.5642898  25.6602509
  27.3420955  28.5832898  25.9332509  26.9845299  29.0325583  26.8597522
  26.4460955  28.0382898  25.0422509  25.3788192  28.0540999  25.2630951
  26.8980955  27.4732898  23.8722509  26.1896409  27.0408560  23.1657149
  28.2450955  27.4542898  23.5942509  28.6038558  27.0093177  22.6661393
  29.1400955  27.9972898  24.4882509  30.2077669  27.9793723  24.2694893
  31.4670955  28.6632898  28.4162509  31.8150955  29.8342898  28.4262509
  31.9280955  27.7252898  29.2542509  31.5770732  26.7792845  29.2100164
  32.9560955  28.0382898  30.2482509  33.6089432  28.8834992  30.0302828
  32.1850955  28.3342898  31.5492509  31.5336966  27.4929150  31.7856151
  32.8922211  28.4859561  32.3647697  31.5832361  29.2336667  31.4189216
  33.8490955  26.8232898  30.3832509  33.6960955  25.8082898  29.7222509
  34.8170955  26.9702898  31.2972509  34.9685601  27.8340287  31.7983625
  35.7770955  25.8702898  31.4952509  36.0855805  25.4611583  30.5331970
  37.0280955  26.4002898  32.2302509  36.7280933  26.7400236  33.2215525
  37.7563211  25.5951177  32.3276438  37.7550955  27.5692898  31.5692509
  37.7650955  27.7722898  30.2042509  37.2317205  27.0759684  29.5571438
  38.4390955  28.8402898  29.6582509  38.4360638  28.9916167  28.5788104
  39.1160955  29.7162898  30.4732509  39.6516168  30.5630916  30.0440149
  39.1160955  29.5212898  31.8342509  39.6513670  30.2116746  32.4861354
  38.4380955  28.4512898  32.3732509  38.4376101  28.2937247  33.4518022
  35.2310955  24.6442898  32.2012509  35.9210955  23.6682898  32.4512509
  33.9360955  24.7512898  32.5222509  33.4621982  25.6076317  32.2728477
  33.5060418  23.9696377  32.9957207  30.6280113  33.2072753  27.6164083
  34.1138553  20.2552753  26.1954083  20.9430113  47.1833833  41.1156493
  25.0970113  22.3302753  38.9166493  46.0988553  21.9332753  73.7081313
  49.4928553  33.2072753  27.6164083  20.3140113  25.8242753  16.9494083
  15.3410113  41.6853833  56.9408903  46.5898553  44.0553833  69.4848903
  31.5230113  56.8784913  38.8666493  31.5500113  35.2452753  74.3161313
  43.0218553  18.6222753  33.8324083  49.3668553  43.7733833  51.7386493
  31.7450113  27.6632753  15.0241673  44.3308553  13.9301673  62.4488903
  24.1570113  55.5784913  52.8386493  18.4690113  19.2492753  26.3824083
  27.4870113  21.8082753  68.2238903  53.2676993  32.1502753  66.6888903
  38.2678553  44.3073833  29.0914083  48.2838553  38.9873833  65.3848903
  25.0970113  19.2712753  19.8014083  35.3468553  17.3651673  68.1598903
  27.1420113  55.6074913  45.8306493  41.7708553  37.0943833  27.1894083
  26.1440113  29.4222753  72.0788903  43.9618553  19.2712753  57.8138903
  19.8510113  48.1723833  51.3736493  18.3210113  24.8652753  33.8844083
  34.0318553  48.1233833  36.7416493  49.8128553  25.0032753  67.9488903
  41.4258553  19.0072753  24.3904083  24.3320113  32.0582753  17.5424083
  40.3938553  38.6343833  70.9458903  30.8240113  27.4122753  47.3206493
  46.5898553  25.5772753  31.4724083  43.4118553  48.1343833  50.9836493
  15.3410113  23.2072753  18.9284083  24.7510113  23.5482753  60.6178903
  28.7430113  35.1412753   6.5821673  14.6561673  38.8423833  55.5938903
  43.9618553  19.2712753  76.8201313  63.6496993  55.3154913  79.3131313
  63.4046993  55.8034913  78.6331313  64.5126993  55.2424913  79.2131313
  63.7406993  55.3764913  79.1981313  63.4586993  62.2314913  83.9841313
  62.9346993  62.8274913  84.3471313  63.8556993  61.8634913  84.6681313
  63.4396993  62.2654913  84.1391313  53.3276993  66.3714913  79.4401313
  52.8866993  66.4894913  80.1831313  53.0446993  65.5964913  79.1551313
  53.2206993  66.2744913  79.5081313  53.0706993  60.1634913  75.9471313
  52.2926993  60.3254913  75.5871313  53.1096993  59.2924913  75.9691313
  52.9616993  60.0584913  75.8971313  56.2096993  65.4264913  74.6191313
  55.8176993  65.0554913  73.9331313  56.1296993  64.8284913  75.2481313
  56.1396993  65.2834913  74.6101313  55.8366993  67.0674913  78.5191313
  56.4446993  66.8974913  79.1221313  55.0856993  66.9274913  78.9401313
  55.8156993  67.0214913  78.6701313  60.1186993  56.4024913  78.4681313
  60.0486993  57.0794913  77.9221313  60.8596993  56.0144913  78.2191313
  60.2176993  56.4454913  78.3501313  54.7276993  70.1584913  74.5961313
  55.1946993  70.2424913  73.8641313  55.1826993  69.5804913  75.0651313
  54.8636993  70.0854913  74.5571313  53.2676993  69.1064913  85.6951313
  53.3966993  68.8264913  86.5111313  52.6576993  68.5654913  85.3861313
  53.1966993  68.9854913  85.7701313  54.7136993  63.6274913  79.8971313
  54.2516993  63.2354913  79.2701313  55.4136993  63.1144913  79.9891313
  54.7486993  63.4944913  79.8181313  59.2216993  59.2374913  85.2441313
  59.8996993  59.2554913  84.6951313  59.1766993  58.4014913  85.4891313
  59.3146993  59.1164913  85.1991313  56.7146993  61.7274913  79.9201313
  57.5316993  61.5404913  80.1631313  56.2376993  61.1134913  80.3161313
  56.7646993  61.6094913  80.0151313  60.9186993  67.7084913  82.5301313
  61.2666993  66.9094913  82.5601313  61.5836993  68.2124913  82.2751313
  61.0686993  67.6644913  82.4971313  60.9756993  67.1574913  78.7411313
  61.3066993  66.5134913  79.2271313  61.2156993  66.9464913  77.9301313
  61.0596993  67.0314913  78.6931313  57.3116993  56.8214913  79.1861313
  57.0156993  57.3224913  78.5361313  58.1786993  56.8994913  79.1291313
  57.3956993  56.9074913  79.0821313  60.2906993  55.9634913  81.4091313
  60.3636993  56.8234913  81.5381313  60.2526993  55.8884913  80.5411313
  60.2956993  56.0794913  81.3001313  64.9636993  58.8894913  73.7081313
  64.5136993  59.5704913  74.0151313  65.0776993  58.3854913  74.4111313
  64.9146993  58.9154913  73.8571313  53.1696993  61.3884913  82.9101313
  52.9136993  62.2194913  82.8351313  52.5056993  61.0054913  83.3271313
  53.0336993  61.4544913  82.9611313  58.9196993  68.9424913  78.2901313
  58.3406993  68.6674913  78.8821313  59.5436993  68.3334913  78.3151313
  58.9266993  68.8124913  78.3811313  56.1986993  56.2054913  83.4011313
  55.6776993  55.5774913  83.0931313  56.7896993  55.7684913  83.8721313
  56.2096993  56.0474913  83.4251313  54.6246993  69.7684913  78.7411313
  55.2806993  69.1934913  78.7561313  55.0136993  70.5174913  78.5201313
  54.7796993  69.7934913  78.7111313  55.4426993  68.2554913  82.2411313
  55.8656993  67.8994913  81.5671313  55.7666993  67.8334913  82.9331313
  55.5526993  68.1404913  82.2441313  62.4806993  60.5044913  79.6241313
  62.7676993  60.2724913  78.8341313  63.2126993  60.5834913  80.0931313
  62.6306993  60.4814913  79.5771313  63.2026993  60.8434913  74.7451313
  63.4836993  61.6314913  74.9941313  62.4266993  61.0084913  74.3821313
  63.1296993  60.9844913  74.7281313  62.0616993  69.0144913  74.5611313
  61.8806993  69.5594913  75.2181313  62.8276993  69.3044913  74.2601313
  62.1476993  69.1384913  74.6141313  53.5226993  58.0784913  78.1841313
  53.4086993  57.2144913  78.2151313  53.0476993  58.3724913  78.8541313
  53.4356993  57.9944913  78.2871313  55.6646993  70.4884913  86.3991313
  54.9666993  69.9804913  86.5251313  55.9246993  70.2834913  85.5911313
  55.5996993  70.3834913  86.2981313  62.8266993  59.2864913  76.9291313
  62.3186993  58.6244913  76.6751313  62.8786993  59.7904913  76.2191313
  62.7596993  59.2634913  76.7871313  62.8266993  56.2274913  76.8201313
  62.3716993  55.8254913  76.1941313  63.5996993  56.3824913  76.4451313
  62.8736993  56.1914913  76.6721313  61.4246993  58.5944913  81.3421313
  61.4986993  59.1624913  80.6841313  61.5456993  59.0864913  82.0521313
  61.4526993  58.7514913  81.3501313  56.0326993  54.4174913  79.6901313
  56.5686993  55.1054913  79.6801313  56.0356993  54.1434913  78.8621313
  56.1116993  54.4784913  79.5661313  58.9886993  64.8504913  83.7151313
  59.1606993  64.6404913  84.5441313  58.3336993  64.3164913  83.4991313
  58.9176993  64.7404913  83.8061313  65.2166993  58.7644913  87.2301313
  65.1216993  59.0834913  88.0361313  64.6236993  58.1254913  87.1921313
  65.1146993  58.7164913  87.3441313  59.7386993  64.7884913  86.3051313
  59.7916993  65.6354913  86.5071313  59.4536993  64.4184913  87.0421313
  59.7046993  64.8584913  86.4431313  56.4806993  58.2274913  81.3441313
  56.7526993  57.7974913  80.6361313  56.3046993  57.5914913  81.9151313
  56.4946993  58.0704913  81.3241313  56.3046993  65.6544913  80.8931313
  57.1556993  65.5744913  80.7201313  55.9476993  64.9724913  80.4811313
  56.3776993  65.5414913  80.8061313  54.6216993  59.3294913  84.4261313
  55.4646993  59.5494913  84.3831313  54.2326993  59.9024913  83.8951313
  54.6886993  59.4464913  84.3411313  58.6726993  65.6614913  79.1281313
  59.3856993  66.1564913  79.2181313  58.8946993  65.0944913  78.5021313
  58.8106993  65.6504913  79.0491313  52.8286993  67.3044913  82.4481313
  52.1616993  67.7924913  82.7241313  53.5086993  67.8494913  82.4771313
  52.8306993  67.4564913  82.4931313  52.8946993  63.9884913  77.5511313
  52.7096993  63.1494913  77.7031313  53.5536993  63.9524913  76.9811313
  52.9646993  63.8594913  77.4891313  63.1956993  69.3644913  81.4551313
  62.6726993  69.9984913  81.1621313  63.5056993  69.0004913  80.7261313
  63.1636993  69.4044913  81.3041313  53.0666993  68.1524913  77.1261313
  53.6186993  68.7214913  77.4901313  52.8346993  67.6374913  77.7911313
  53.1136993  68.1604913  77.2781313  57.2706993  67.1524913  84.2151313
  57.7376993  67.4414913  84.8931313  57.8426993  66.6744913  83.7611313
  57.4246993  67.1244913  84.2481313  52.8966993  66.6014913  74.7541313
  53.6526993  66.1694913  74.8121313  52.9116993  67.1334913  75.4451313
  53.0106993  66.6164913  74.8651313  53.8366993  64.8224913  82.7591313
  54.2676993  64.6934913  82.0121313  53.6316993  65.6704913  82.7331313
  53.8696993  64.9284913  82.6451313  60.1826993  58.3864913  76.4091313
  60.1806993  58.2694913  75.5441313  60.0016993  59.2344913  76.5011313
  60.1556993  58.4944913  76.2951313  57.9206993  68.3384913  81.0411313
  58.0466993  69.1814913  81.2281313  58.5886993  67.9394913  81.4371313
  58.0386993  68.4044913  81.1271313  56.5356993  61.2184913  76.0431313
  56.4076993  60.7704913  76.7811313  55.9536993  60.8764913  75.4911313
  56.4306993  61.1014913  76.0711313  56.7026993  63.0484913  82.6421313
  55.9216993  62.9894913  82.2591313  56.7746993  62.2964913  83.0791313
  56.5976993  62.9294913  82.6501313  57.1326993  62.7854913  86.1101313
  57.1576993  62.1104913  85.5591313  56.4866993  63.2814913  85.7981313
  57.0416993  62.7584913  85.9831313  63.6726993  56.4044913  87.9351313
  63.8216993  55.5794913  87.6921313  64.0516993  56.4594913  88.7191313
  63.7506993  56.2904913  88.0151313  61.8026993  59.9374913  83.7421313
  62.2826993  60.6364913  83.9501313  62.1756993  59.2904913  84.1931313
  61.9286993  59.9454913  83.8391313  63.9916993  63.1064913  76.0161313
  63.9836993  63.8284913  75.5261313  63.3526993  63.2414913  76.5931313
  63.8966993  63.2334913  76.0291313  65.0086993  70.0424913  83.8411313
  64.4056993  69.7464913  83.2841313  65.5536993  70.4944913  83.3321313
  64.9996993  70.0654913  83.6831313  65.0216993  66.8934913  83.2411313
  64.2246993  67.1174913  83.5151313  65.2796993  66.2994913  83.8261313
  64.9416993  66.8384913  83.3681313  58.5846993  55.4484913  75.6771313
  58.6816993  55.3414913  76.5381313  57.8766993  55.9544913  75.6121313
  58.4946993  55.5074913  75.7951313  55.7066993  63.7554913  76.9201313
  56.0306993  62.9764913  76.6981313  56.3526993  64.1234913  77.3751313
  55.8496993  63.6944913  76.9541313  64.0126993  64.6974913  87.6871313
  63.8576993  65.3074913  88.2911313  64.5466993  64.1394913  88.0931313
  64.0686993  64.7054913  87.8361313  52.7036993  55.4164913  77.8881313
  52.8326993  54.7084913  77.3961313  52.3366993  55.0984913  78.6131313
  52.6686993  55.2644913  77.9231313  62.3966993  63.0974913  78.3451313
  62.4556993  63.7474913  78.9241313  62.2076993  62.4014913  78.8361313
  62.3776993  63.0904913  78.5031313  56.8926993  57.6144913  74.8571313
  56.3816993  57.6674913  74.1511313  57.6766993  57.8544913  74.5611313
  56.9326993  57.6574913  74.7091313  61.6196993  65.1444913  82.7761313
  60.7726993  64.9504913  82.8571313  61.9436993  64.9794913  83.5691313
  61.5416993  65.0914913  82.9051313  55.4676993  64.8374913  85.0921313
  56.1896993  65.3254913  85.0551313  55.1976993  64.8074913  84.2631313
  55.5346993  64.9054913  84.9641313  58.6976993  60.0084913  81.8271313
  59.5436993  59.8184913  81.9251313  58.3276993  59.2314913  81.6891313
  58.7676993  59.8654913  81.8211313  53.5186993  61.3464913  78.4821313
  54.0076993  61.0544913  79.1431313  53.6476993  60.7534913  77.8551313
  53.6096993  61.2154913  78.4871313  58.0436993  62.7804913  73.9681313
  57.4336993  62.3754913  74.4421313  57.6576993  62.8984913  73.1951313
  57.8966993  62.7374913  73.9241313  59.4986993  61.2414913  76.6781313
  59.7706993  62.0674913  76.7451313  58.6356993  61.3164913  76.5821313
  59.4116993  61.3744913  76.6731313  52.9786993  57.2114913  83.2141313
  53.0226993  57.5554913  82.4131313  53.7336993  57.4484913  83.5811313
  53.0966993  57.2974913  83.1501313  64.9196993  66.5504913  74.6841313
  65.6036993  66.0364913  74.5151313  64.5026993  66.5964913  73.9191313
  64.9586993  66.4814913  74.5461313  59.6016993  67.7004913  85.9881313
  59.3036993  68.2924913  86.5551313  59.6566993  68.1424913  85.2391313
  59.5656993  67.8534913  85.9611313  62.1176993  64.1234913  85.4791313
  62.5936993  64.4974913  86.1071313  61.2946993  64.2574913  85.7381313
  62.0666993  64.1984913  85.6101313  58.8276993  59.7264913  88.2201313
  58.9886993  58.9824913  88.6471313  58.7826993  59.4774913  87.3851313
  58.8446993  59.5794913  88.1601313  60.5796993  55.5344913  88.1001313
  61.2846993  55.8544913  87.6981313  60.8206993  54.7274913  88.3271313
  60.7186993  55.4624913  88.0741313  59.5646993  69.7444913  84.0961313
  58.9406993  70.3264913  83.9141313  59.8126993  69.4584913  83.3101313
  59.5086993  69.7884913  83.9531313  61.1586993  64.5204913  74.0111313
  60.3536993  64.3434913  73.7261313  61.1256993  65.3714913  74.2031313
  61.0346993  64.6194913  73.9981313  57.0886993  60.5874913  84.1611313
  57.5286993  60.4844913  83.4151313  57.6336993  60.2744913  84.7661313
  57.2336993  60.5264913  84.1401313  64.7926993  61.2264913  86.0511313
  65.0946993  61.6464913  86.7541313  64.8286993  60.3864913  86.2831313
  64.8426993  61.1644913  86.1891313  60.6356993  55.5724913  84.2081313
  59.8096993  55.4234913  84.4451313  60.5956993  55.6074913  83.3371313
  60.5076993  55.5554913  84.1141313  56.2646993  58.7144913  77.4681313
  56.3906993  58.3854913  76.6701313  55.4526993  58.4654913  77.6671313
  56.1636993  58.6294913  77.3801313  65.0216993  65.8674913  80.5121313
  65.0976993  66.2084913  81.3111313  65.1906993  65.0204913  80.6331313
  65.0576993  65.7924913  80.6481313  62.5436993  65.1414913  80.0771313
  62.2456993  64.8264913  80.8341313  63.2386993  65.6144913  80.3121313
  62.6026993  65.1644913  80.2241313  62.7656993  69.2594913  88.1041313
  63.4526993  69.1454913  88.6291313  62.8996993  70.0504913  87.7601313
  62.8866993  69.3594913  88.1311313  63.1736993  67.1874913  85.5371313
  62.4796993  67.5894913  85.8801313  63.8506993  67.6204913  85.8761313
  63.1706993  67.3104913  85.6381313  56.2416993  60.7254913  87.8841313
  56.6166993  61.3444913  87.3971313  56.9156993  60.2514913  88.1691313
  56.3966993  60.7474913  87.8541313  54.0166993  59.1734913  87.1591313
  54.0936993  59.0044913  86.3061313  54.7626993  59.5794913  87.3561313
  54.1376993  59.2084913  87.0621313  63.4956993  68.7784913  78.7061313
  63.2906993  69.6114913  78.5471313  62.7206993  68.3964913  78.8281313
  63.3506993  68.8454913  78.7011313  53.4136993  64.3994913  87.3831313
  53.7336993  64.6184913  86.6021313  53.3136993  63.5344913  87.3281313
  53.4456993  64.3044913  87.2601313  54.8696993  60.3354913  74.0011313
  54.1976993  60.3494913  74.5571313  54.9646993  59.4874913  73.8171313
  54.7846993  60.2124913  74.0561313  63.5506993  56.9494913  81.5911313
  62.8506993  57.4674913  81.5351313  63.5886993  56.5694913  80.8071313
  63.4526993  56.9704913  81.4671313  58.8576993  69.0404913  75.1151313
  59.2986993  69.1204913  75.8631313  58.0526993  68.8244913  75.3731313
  58.8036993  69.0204913  75.2641313  58.1766993  63.6914913  88.7681313
  57.7806993  64.4654913  88.8431313  57.7706993  63.3184913  88.0921313
  58.0586993  63.7504913  88.6791313  56.1866993  68.1104913  75.7161313
  55.9426993  67.8034913  76.4961313  56.1536993  67.4074913  75.2001313
  56.1456993  67.9614913  75.7551313  59.0056993  66.3554913  74.4591313
  58.1876993  66.0874913  74.5991313  58.9776993  67.2074913  74.6441313
  58.8806993  66.4424913  74.5071313  58.6056993  56.6684913  86.2181313
  57.7416993  56.7524913  86.2981313  58.8256993  56.1544913  86.8871313
  58.5106993  56.6054913  86.3291313  62.7086993  57.4164913  84.5921313
  61.9716993  56.9624913  84.7051313  63.2796993  57.0144913  85.1151313
  62.6836993  57.2894913  84.6861313  65.4406993  68.2644913  86.3801313
  65.6466993  68.5654913  87.1721313  65.3796993  68.9864913  85.8951313
  65.4616993  68.4154913  86.4251313  61.0076993  54.9974913  74.4231313
  61.0856993  55.2444913  73.5901313  60.2646993  55.3744913  74.6811313
  60.9096993  55.0894913  74.3381313  55.8256993  56.7514913  86.8661313
  55.4826993  55.9844913  86.6321313  55.1306993  57.2754913  86.9301313
  55.6726993  56.7154913  86.8411313  64.8716993  55.6074913  83.8431313
  65.5416993  56.1514913  83.9701313  64.3686993  56.0314913  83.2701313
  64.8966993  55.7504913  83.7771313  64.2306993  61.4154913  81.3361313
  64.7816993  60.8084913  81.6361313  63.8056993  61.6784913  82.0511313
  64.2496993  61.3644913  81.4851313  54.4786993  60.0654913  80.8221313
  54.1106993  60.3674913  81.5531313  55.0126993  59.4364913  81.1061313
  54.5026993  60.0174913  80.9721313  54.1666993  68.4734913  88.3331313
  53.5926993  68.8894913  88.8421313  54.8996993  68.9384913  88.4281313
  54.1906993  68.6034913  88.4221313  60.1196993  64.1374913  76.8361313
  60.2196993  64.2764913  75.9811313  60.9376993  64.0774913  77.1321313
  60.2546993  64.1484913  76.7531313  65.3546993  68.4664913  76.6381313
  65.1036993  68.3384913  77.4641313  65.0376993  67.7714913  76.2171313
  65.2706993  68.3454913  76.6981313  62.2406993  66.6744913  76.0681313
  62.9576993  66.3274913  75.7121313  62.2066993  67.4744913  75.7201313
  62.3416993  66.7414913  75.9641313  63.6496993  55.3154913  60.3068903
  63.4046993  55.8034913  59.6268903  64.5126993  55.2424913  60.2068903
  63.7406993  55.3764913  60.1918903  63.4586993  62.2314913  64.9778903
  62.9346993  62.8274913  65.3408903  63.8556993  61.8634913  65.6618903
  63.4396993  62.2654913  65.1328903  53.3276993  66.3714913  60.4338903
  52.8866993  66.4894913  61.1768903  53.0446993  65.5964913  60.1488903
  53.2206993  66.2744913  60.5018903  53.0706993  60.1634913  56.9408903
  52.2926993  60.3254913  56.5808903  53.1096993  59.2924913  56.9628903
  52.9616993  60.0584913  56.8908903  56.2096993  65.4264913  55.6128903
  55.8176993  65.0554913  54.9268903  56.1296993  64.8284913  56.2418903
  56.1396993  65.2834913  55.6038903  55.8366993  67.0674913  59.5128903
  56.4446993  66.8974913  60.1158903  55.0856993  66.9274913  59.9338903
  55.8156993  67.0214913  59.6638903  60.1186993  56.4024913  59.4618903
  60.0486993  57.0794913  58.9158903  60.8596993  56.0144913  59.2128903
  60.2176993  56.4454913  59.3438903  54.7276993  70.1584913  55.5898903
  55.1946993  70.2424913  54.8578903  55.1826993  69.5804913  56.0588903
  54.8636993  70.0854913  55.5508903  53.2676993  69.1064913  66.6888903
  53.3966993  68.8264913  67.5048903  52.6576993  68.5654913  66.3798903
  53.1966993  68.9854913  66.7638903  59.8416993  66.6314913  71.7558903
  59.6056993  66.6284913  72.5958903  59.0936993  66.4834913  71.3318903
  59.6956993  66.6084913  71.8168903  54.7136993  63.6274913  60.8908903
  54.2516993  63.2354913  60.2638903  55.4136993  63.1144913  60.9828903
  54.7486993  63.4944913  60.8118903  59.2216993  59.2374913  66.2378903
  59.8996993  59.2554913  65.6888903  59.1766993  58.4014913  66.4828903
  59.3146993  59.1164913  66.1928903  56.7146993  61.7274913  60.9138903
  57.5316993  61.5404913  61.1568903  56.2376993  61.1134913  61.3098903
  56.7646993  61.6094913  61.0088903  60.9186993  67.7084913  63.5238903
  61.2666993  66.9094913  63.5538903  61.5836993  68.2124913  63.2688903
  61.0686993  67.6644913  63.4908903  60.9756993  67.1574913  59.7348903
  61.3066993  66.5134913  60.2208903  61.2156993  66.9464913  58.9238903
  61.0596993  67.0314913  59.6868903  62.9436993  61.2884913  71.0738903
  62.0956993  61.1894913  70.8958903  62.9726993  62.0334913  71.5278903
  62.8226993  61.3844913  71.1148903  57.3116993  56.8214913  60.1798903
  57.0156993  57.3224913  59.5298903  58.1786993  56.8994913  60.1228903
  57.3956993  56.9074913  60.0758903  60.2906993  55.9634913  62.4028903
  60.3636993  56.8234913  62.5318903  60.2526993  55.8884913  61.5348903
  60.2956993  56.0794913  62.2938903  64.9636993  58.8894913  54.7018903
  64.5136993  59.5704913  55.0088903  65.0776993  58.3854913  55.4048903
  64.9146993  58.9154913  54.8508903  53.1696993  61.3884913  63.9038903
  52.9136993  62.2194913  63.8288903  52.5056993  61.0054913  64.3208903
  53.0336993  61.4544913  63.9548903  58.9196993  68.9424913  59.2838903
  58.3406993  68.6674913  59.8758903  59.5436993  68.3334913  59.3088903
  58.9266993  68.8124913  59.3748903  56.1986993  56.2054913  64.3948903
  55.6776993  55.5774913  64.0868903  56.7896993  55.7684913  64.8658903
  56.2096993  56.0474913  64.4188903  59.5046993  58.3384913  73.6928903
  59.6216993  57.8844913  72.9568903  59.7926993  59.1364913  73.4898903
  59.5646993  58.3894913  73.5538903  54.6246993  69.7684913  59.7348903
  55.2806993  69.1934913  59.7498903  55.0136993  70.5174913  59.5138903
  54.7796993  69.7934913  59.7048903  55.2376993  57.9354913  72.6768903
  54.4596993  57.5454913  72.6048903  55.7286993  57.5234913  72.0858903
  55.1946993  57.8164913  72.5788903  55.4426993  68.2554913  63.2348903
  55.8656993  67.8994913  62.5608903  55.7666993  67.8334913  63.9268903
  55.5526993  68.1404913  63.2378903  61.8866993  55.5784913  71.8448903
  62.0646993  54.7694913  71.5698903  61.7436993  56.0194913  71.1058903
  61.8916993  55.5244913  71.6948903  62.4806993  60.5044913  60.6178903
  62.7676993  60.2724913  59.8278903  63.2126993  60.5834913  61.0868903
  62.6306993  60.4814913  60.5708903  63.2026993  60.8434913  55.7388903
  63.4836993  61.6314913  55.9878903  62.4266993  61.0084913  55.3758903
  63.1296993  60.9844913  55.7218903  52.5856993  58.4834913  70.2628903
  52.5816993  59.0704913  70.9088903  53.1796993  58.7954913  69.7058903
  52.6726993  58.6164913  70.2758903  62.0616993  69.0144913  55.5548903
  61.8806993  69.5594913  56.2118903  62.8276993  69.3044913  55.2538903
  62.1476993  69.1384913  55.6078903  53.5226993  58.0784913  59.1778903
  53.4086993  57.2144913  59.2088903  53.0476993  58.3724913  59.8478903
  53.4356993  57.9944913  59.2808903  55.6646993  70.4884913  67.3928903
  54.9666993  69.9804913  67.5188903  55.9246993  70.2834913  66.5848903
  55.5996993  70.3834913  67.2918903  62.8266993  59.2864913  57.9228903
  62.3186993  58.6244913  57.6688903  62.8786993  59.7904913  57.2128903
  62.7596993  59.2634913  57.7808903  62.8266993  56.2274913  57.8138903
  62.3716993  55.8254913  57.1878903  63.5996993  56.3824913  57.4388903
  62.8736993  56.1914913  57.6658903  61.4246993  58.5944913  62.3358903
  61.4986993  59.1624913  61.6778903  61.5456993  59.0864913  63.0458903
  61.4526993  58.7514913  62.3438903  57.0256993  69.3394913  69.9598903
  57.8666993  69.4024913  69.7378903  56.9886993  69.7364913  70.7358903
  57.1446993  69.4074913  70.0418903  56.0326993  54.4174913  60.6838903
  56.5686993  55.1054913  60.6738903  56.0356993  54.1434913  59.8558903
  56.1116993  54.4784913  60.5598903  58.9886993  64.8504913  64.7088903
  59.1606993  64.6404913  65.5378903  58.3336993  64.3164913  64.4928903
  58.9176993  64.7404913  64.7998903  65.2166993  58.7644913  68.2238903
  65.1216993  59.0834913  69.0298903  64.6236993  58.1254913  68.1858903
  65.1146993  58.7164913  68.3378903  59.7386993  64.7884913  67.2988903
  59.7916993  65.6354913  67.5008903  59.4536993  64.4184913  68.0358903
  59.7046993  64.8584913  67.4368903  52.5596993  69.1594913  73.5098903
  53.3156993  69.5084913  73.7678903  52.7366993  68.3064913  73.4528903
  52.6976993  69.0844913  73.5398903  56.4806993  58.2274913  62.3378903
  56.7526993  57.7974913  61.6298903  56.3046993  57.5914913  62.9088903
  56.4946993  58.0704913  62.3178903  56.3046993  65.6544913  61.8868903
  57.1556993  65.5744913  61.7138903  55.9476993  64.9724913  61.4748903
  56.3776993  65.5414913  61.7998903  54.6216993  59.3294913  65.4198903
  55.4646993  59.5494913  65.3768903  54.2326993  59.9024913  64.8888903
  54.6886993  59.4464913  65.3348903  58.6726993  65.6614913  60.1218903
  59.3856993  66.1564913  60.2118903  58.8946993  65.0944913  59.4958903
  58.8106993  65.6504913  60.0428903  52.8286993  67.3044913  63.4418903
  52.1616993  67.7924913  63.7178903  53.5086993  67.8494913  63.4708903
  52.8306993  67.4564913  63.4868903  60.4756993  61.0144913  73.5378903
  59.9916993  61.5914913  73.9798903  60.4476993  61.3094913  72.7168903
  60.3996993  61.1434913  73.4818903  52.8946993  63.9884913  58.5448903
  52.7096993  63.1494913  58.6968903  53.5536993  63.9524913  57.9748903
  52.9646993  63.8594913  58.4828903  63.1956993  69.3644913  62.4488903
  62.6726993  69.9984913  62.1558903  63.5056993  69.0004913  61.7198903
  63.1636993  69.4044913  62.2978903  53.0666993  68.1524913  58.1198903
  53.6186993  68.7214913  58.4838903  52.8346993  67.6374913  58.7848903
  53.1136993  68.1604913  58.2718903  57.2706993  67.1524913  65.2088903
  57.7376993  67.4414913  65.8868903  57.8426993  66.6744913  64.7548903
  57.4246993  67.1244913  65.2418903  52.8966993  66.6014913  55.7478903
  53.6526993  66.1694913  55.8058903  52.9116993  67.1334913  56.4388903
  53.0106993  66.6164913  55.8588903  53.8366993  64.8224913  63.7528903
  54.2676993  64.6934913  63.0058903  53.6316993  65.6704913  63.7268903
  53.8696993  64.9284913  63.6388903  60.1826993  58.3864913  57.4028903
  60.1806993  58.2694913  56.5378903  60.0016993  59.2344913  57.4948903
  60.1556993  58.4944913  57.2888903  57.9206993  68.3384913  62.0348903
  58.0466993  69.1814913  62.2218903  58.5886993  67.9394913  62.4308903
  58.0386993  68.4044913  62.1208903  56.0506993  61.8214913  71.8968903
  55.5146993  61.3154913  72.3648903  56.0706993  61.4314913  71.1168903
  55.9736993  61.6884913  71.8508903  56.5356993  61.2184913  57.0368903
  56.4076993  60.7704913  57.7748903  55.9536993  60.8764913  56.4848903
  56.4306993  61.1014913  57.0648903  56.7026993  63.0484913  63.6358903
  55.9216993  62.9894913  63.2528903  56.7746993  62.2964913  64.0728903
  56.5976993  62.9294913  63.6438903  57.1326993  62.7854913  67.1038903
  57.1576993  62.1104913  66.5528903  56.4866993  63.2814913  66.7918903
  57.0416993  62.7584913  66.9768903  63.6726993  56.4044913  68.9288903
  63.8216993  55.5794913  68.6858903  64.0516993  56.4594913  69.7128903
  63.7506993  56.2904913  69.0088903  54.9316993  64.1404913  72.6628903
  54.8946993  64.6414913  71.9488903  55.2626993  63.3884913  72.3678903
  54.9746993  64.1024913  72.5138903  60.8306993  69.1904913  72.0978903
  61.1846993  69.0124913  72.8748903  60.3946993  68.4614913  71.8988903
  60.8186993  69.0564913  72.1838903  61.8026993  59.9374913  64.7358903
  62.2826993  60.6364913  64.9438903  62.1756993  59.2904913  65.1868903
  61.9286993  59.9454913  64.8328903  63.9916993  63.1064913  57.0098903
  63.9836993  63.8284913  56.5198903  63.3526993  63.2414913  57.5868903
  63.8966993  63.2334913  57.0228903  65.0086993  70.0424913  64.8348903
  64.4056993  69.7464913  64.2778903  65.5536993  70.4944913  64.3258903
  64.9996993  70.0654913  64.6768903  65.0216993  66.8934913  64.2348903
  64.2246993  67.1174913  64.5088903  65.2796993  66.2994913  64.8198903
  64.9416993  66.8384913  64.3618903  58.5846993  55.4484913  56.6708903
  58.6816993  55.3414913  57.5318903  57.8766993  55.9544913  56.6058903
  58.4946993  55.5074913  56.7888903  55.7066993  63.7554913  57.9138903
  56.0306993  62.9764913  57.6918903  56.3526993  64.1234913  58.3688903
  55.8496993  63.6944913  57.9478903  64.0126993  64.6974913  68.6808903
  63.8576993  65.3074913  69.2848903  64.5466993  64.1394913  69.0868903
  64.0686993  64.7054913  68.8298903  52.7036993  55.4164913  58.8818903
  52.8326993  54.7084913  58.3898903  52.3366993  55.0984913  59.6068903
  52.6686993  55.2644913  58.9168903  62.3966993  63.0974913  59.3388903
  62.4556993  63.7474913  59.9178903  62.2076993  62.4014913  59.8298903
  62.3776993  63.0904913  59.4968903  56.8926993  57.6144913  55.8508903
  56.3816993  57.6674913  55.1448903  57.6766993  57.8544913  55.5548903
  56.9326993  57.6574913  55.7028903  61.6196993  65.1444913  63.7698903
  60.7726993  64.9504913  63.8508903  61.9436993  64.9794913  64.5628903
  61.5416993  65.0914913  63.8988903  55.4676993  64.8374913  66.0858903
  56.1896993  65.3254913  66.0488903  55.1976993  64.8074913  65.2568903
  55.5346993  64.9054913  65.9578903  58.6976993  60.0084913  62.8208903
  59.5436993  59.8184913  62.9188903  58.3276993  59.2314913  62.6828903
  58.7676993  59.8654913  62.8148903  53.5186993  61.3464913  59.4758903
  54.0076993  61.0544913  60.1368903  53.6476993  60.7534913  58.8488903
  53.6096993  61.2154913  59.4808903  58.0436993  62.7804913  54.9618903
  57.4336993  62.3754913  55.4358903  57.6576993  62.8984913  54.1888903
  57.8966993  62.7374913  54.9178903  54.8626993  65.8894913  70.3638903
  54.4416993  65.3714913  69.8028903  54.5106993  66.6754913  70.2208903
  54.7486993  65.9294913  70.2598903  59.4986993  61.2414913  57.6718903
  59.7706993  62.0674913  57.7388903  58.6356993  61.3164913  57.5758903
  59.4116993  61.3744913  57.6668903  52.9786993  57.2114913  64.2078903
  53.0226993  57.5554913  63.4068903  53.7336993  57.4484913  64.5748903
  53.0966993  57.2974913  64.1438903  64.9196993  66.5504913  55.6778903
  65.6036993  66.0364913  55.5088903  64.5026993  66.5964913  54.9128903
  64.9586993  66.4814913  55.5398903  59.6016993  67.7004913  66.9818903
  59.3036993  68.2924913  67.5488903  59.6566993  68.1424913  66.2328903
  59.5656993  67.8534913  66.9548903  57.5806993  66.6504913  70.3798903
  56.7746993  66.3604913  70.5468903  57.4916993  67.5184913  70.3858903
  57.4486993  66.7354913  70.4048903  62.1176993  64.1234913  66.4728903
  62.5936993  64.4974913  67.1008903  61.2946993  64.2574913  66.7318903
  62.0666993  64.1984913  66.6038903  58.8276993  59.7264913  69.2138903
  58.9886993  58.9824913  69.6408903  58.7826993  59.4774913  68.3788903
  58.8446993  59.5794913  69.1538903  60.5796993  55.5344913  69.0938903
  61.2846993  55.8544913  68.6918903  60.8206993  54.7274913  69.3208903
  60.7186993  55.4624913  69.0678903  59.5646993  69.7444913  65.0898903
  58.9406993  70.3264913  64.9078903  59.8126993  69.4584913  64.3038903
  59.5086993  69.7884913  64.9468903  63.8736993  66.3784913  72.0788903
  64.6306993  66.6644913  71.7528903  63.3266993  66.4304913  71.4008903
  63.9046993  66.4284913  71.9298903  61.1586993  64.5204913  55.0048903
  60.3536993  64.3434913  54.7198903  61.1256993  65.3714913  55.1968903
  61.0346993  64.6194913  54.9918903  57.0886993  60.5874913  65.1548903
  57.5286993  60.4844913  64.4088903  57.6336993  60.2744913  65.7598903
  57.2336993  60.5264913  65.1338903  64.7926993  61.2264913  67.0448903
  65.0946993  61.6464913  67.7478903  64.8286993  60.3864913  67.2768903
  64.8426993  61.1644913  67.1828903  60.6356993  55.5724913  65.2018903
  59.8096993  55.4234913  65.4388903  60.5956993  55.6074913  64.3308903
  60.5076993  55.5554913  65.1078903  62.2766993  66.6124913  69.9898903
  61.4816993  66.5484913  70.3408903  62.3476993  67.4594913  69.7948903
  62.1696993  66.7274913  70.0128903  53.2006993  55.9704913  71.2368903
  53.0606993  56.7654913  70.9058903  52.4146993  55.7274913  71.5258903
  53.0636993  56.0524913  71.2308903  56.2646993  58.7144913  58.4618903
  56.3906993  58.3854913  57.6638903  55.4526993  58.4654913  58.6608903
  56.1636993  58.6294913  58.3738903  65.0216993  65.8674913  61.5058903
  65.0976993  66.2084913  62.3048903  65.1906993  65.0204913  61.6268903
  65.0576993  65.7924913  61.6418903  62.5436993  65.1414913  61.0708903
  62.2456993  64.8264913  61.8278903  63.2386993  65.6144913  61.3058903
  62.6026993  65.1644913  61.2178903  62.7656993  69.2594913  69.0978903
  63.4526993  69.1454913  69.6228903  62.8996993  70.0504913  68.7538903
  62.8866993  69.3594913  69.1248903  63.3886993  63.7234913  72.6718903
  63.7116993  64.4094913  72.2398903  62.6846993  64.0464913  73.0738903
  63.3316993  63.8724913  72.6668903  63.1736993  67.1874913  66.5308903
  62.4796993  67.5894913  66.8738903  63.8506993  67.6204913  66.8698903
  63.1706993  67.3104913  66.6318903  56.2416993  60.7254913  68.8778903
  56.6166993  61.3444913  68.3908903  56.9156993  60.2514913  69.1628903
  56.3966993  60.7474913  68.8478903  54.0166993  59.1734913  68.1528903
  54.0936993  59.0044913  67.2998903  54.7626993  59.5794913  68.3498903
  54.1376993  59.2084913  68.0558903  56.5706993  56.5834913  70.5638903
  56.4896993  55.7394913  70.7698903  56.2566993  56.6274913  69.7508903
  56.5126993  56.4654913  70.4738903  63.4956993  68.7784913  59.6998903
  63.2906993  69.6114913  59.5408903  62.7206993  68.3964913  59.8218903
  63.3506993  68.8454913  59.6948903  53.4136993  64.3994913  68.3768903
  53.7336993  64.6184913  67.5958903  53.3136993  63.5344913  68.3218903
  53.4456993  64.3044913  68.2538903  54.8696993  60.3354913  54.9948903
  54.1976993  60.3494913  55.5508903  54.9646993  59.4874913  54.8108903
  54.7846993  60.2124913  55.0498903  64.5566993  56.7594913  71.7308903
  64.6486993  57.4714913  72.2248903  63.9196993  56.3144913  72.1278903
  64.4756993  56.7984913  71.8628903  63.5506993  56.9494913  62.5848903
  62.8506993  57.4674913  62.5288903  63.5886993  56.5694913  61.8008903
  63.4526993  56.9704913  62.4608903  58.8576993  69.0404913  56.1088903
  59.2986993  69.1204913  56.8568903  58.0526993  68.8244913  56.3668903
  58.8036993  69.0204913  56.2578903  58.1766993  63.6914913  69.7618903
  57.7806993  64.4654913  69.8368903  57.7706993  63.3184913  69.0858903
  58.0586993  63.7504913  69.6728903  56.1866993  68.1104913  56.7098903
  55.9426993  67.8034913  57.4898903  56.1536993  67.4074913  56.1938903
  56.1456993  67.9614913  56.7488903  59.0056993  66.3554913  55.4528903
  58.1876993  66.0874913  55.5928903  58.9776993  67.2074913  55.6378903
  58.8806993  66.4424913  55.5008903  58.6056993  56.6684913  67.2118903
  57.7416993  56.7524913  67.2918903  58.8256993  56.1544913  67.8808903
  58.5106993  56.6054913  67.3228903  62.7086993  57.4164913  65.5858903
  61.9716993  56.9624913  65.6988903  63.2796993  57.0144913  66.1088903
  62.6836993  57.2894913  65.6798903  65.4406993  68.2644913  67.3738903
  65.6466993  68.5654913  68.1658903  65.3796993  68.9864913  66.8888903
  65.4616993  68.4154913  67.4188903  60.2116993  61.7454913  70.7898903
  59.8896993  61.1694913  70.2198903  59.8526993  62.5004913  70.5438903
  60.1116993  61.7714913  70.6698903  61.0076993  54.9974913  55.4168903
  61.0856993  55.2444913  54.5838903  60.2646993  55.3744913  55.6748903
  60.9096993  55.0894913  55.3318903  55.8256993  56.7514913  67.8598903
  55.4826993  55.9844913  67.6258903  55.1306993  57.2754913  67.9238903
  55.6726993  56.7154913  67.8348903  64.8716993  55.6074913  64.8368903
  65.5416993  56.1514913  64.9638903  64.3686993  56.0314913  64.2638903
  64.8966993  55.7504913  64.7708903  64.2306993  61.4154913  62.3298903
  64.7816993  60.8084913  62.6298903  63.8056993  61.6784913  63.0448903
  64.2496993  61.3644913  62.4788903  54.4786993  60.0654913  61.8158903
  54.1106993  60.3674913  62.5468903  55.0126993  59.4364913  62.0998903
  54.5026993  60.0174913  61.9658903  54.1666993  68.4734913  69.3268903
  53.5926993  68.8894913  69.8358903  54.8996993  68.9384913  69.4218903
  54.1906993  68.6034913  69.4158903  60.1196993  64.1374913  57.8298903
  60.2196993  64.2764913  56.9748903  60.9376993  64.0774913  58.1258903
  60.2546993  64.1484913  57.7468903  65.3546993  68.4664913  57.6318903
  65.1036993  68.3384913  58.4578903  65.0376993  67.7714913  57.2108903
  65.2706993  68.3454913  57.6918903  59.2586993  57.1124913  70.9458903
  59.4926993  56.5364913  70.3328903  58.4166993  56.9314913  71.0868903
  59.1686993  57.0004913  70.8758903  62.2406993  66.6744913  57.0618903
  62.9576993  66.3274913  56.7058903  62.2066993  67.4744913  56.7138903
  62.3416993  66.7414913  56.9578903  63.6496993  55.3154913  41.3006493
  63.4046993  55.8034913  40.6206493  64.5126993  55.2424913  41.2006493
  63.7406993  55.3764913  41.1856493  63.4586993  62.2314913  45.9716493
  62.9346993  62.8274913  46.3346493  63.8556993  61.8634913  46.6556493
  63.4396993  62.2654913  46.1266493  53.3276993  66.3714913  41.4276493
  52.8866993  66.4894913  42.1706493  53.0446993  65.5964913  41.1426493
  53.2206993  66.2744913  41.4956493  53.0706993  60.1634913  37.9346493
  52.2926993  60.3254913  37.5746493  53.1096993  59.2924913  37.9566493
  52.9616993  60.0584913  37.8846493  56.2096993  65.4264913  36.6066493
  55.8176993  65.0554913  35.9206493  56.1296993  64.8284913  37.2356493
  56.1396993  65.2834913  36.5976493  55.8366993  67.0674913  40.5066493
  56.4446993  66.8974913  41.1096493  55.0856993  66.9274913  40.9276493
  55.8156993  67.0214913  40.6576493  60.1186993  56.4024913  40.4556493
  60.0486993  57.0794913  39.9096493  60.8596993  56.0144913  40.2066493
  60.2176993  56.4454913  40.3376493  54.7276993  70.1584913  36.5836493
  55.1946993  70.2424913  35.8516493  55.1826993  69.5804913  37.0526493
  54.8636993  70.0854913  36.5446493  53.2676993  69.1064913  47.6826493
  53.3966993  68.8264913  48.4986493  52.6576993  68.5654913  47.3736493
  53.1966993  68.9854913  47.7576493  59.8416993  66.6314913  52.7496493
  59.6056993  66.6284913  53.5896493  59.0936993  66.4834913  52.3256493
  59.6956993  66.6084913  52.8106493  54.7136993  63.6274913  41.8846493
  54.2516993  63.2354913  41.2576493  55.4136993  63.1144913  41.9766493
  54.7486993  63.4944913  41.8056493  59.2216993  59.2374913  47.2316493
  59.8996993  59.2554913  46.6826493  59.1766993  58.4014913  47.4766493
  59.3146993  59.1164913  47.1866493  56.7146993  61.7274913  41.9076493
  57.5316993  61.5404913  42.1506493  56.2376993  61.1134913  42.3036493
  56.7646993  61.6094913  42.0026493  60.9186993  67.7084913  44.5176493
  61.2666993  66.9094913  44.5476493  61.5836993  68.2124913  44.2626493
  61.0686993  67.6644913  44.4846493  60.9756993  67.1574913  40.7286493
  61.3066993  66.5134913  41.2146493  61.2156993  66.9464913  39.9176493
  61.0596993  67.0314913  40.6806493  62.9436993  61.2884913  52.0676493
  62.0956993  61.1894913  51.8896493  62.9726993  62.0334913  52.5216493
  62.8226993  61.3844913  52.1086493  57.3116993  56.8214913  41.1736493
  57.0156993  57.3224913  40.5236493  58.1786993  56.8994913  41.1166493
  57.3956993  56.9074913  41.0696493  60.2906993  55.9634913  43.3966493
  60.3636993  56.8234913  43.5256493  60.2526993  55.8884913  42.5286493
  60.2956993  56.0794913  43.2876493  64.9636993  58.8894913  35.6956493
  64.5136993  59.5704913  36.0026493  65.0776993  58.3854913  36.3986493
  64.9146993  58.9154913  35.8446493  53.1696993  61.3884913  44.8976493
  52.9136993  62.2194913  44.8226493  52.5056993  61.0054913  45.3146493
  53.0336993  61.4544913  44.9486493  58.9196993  68.9424913  40.2776493
  58.3406993  68.6674913  40.8696493  59.5436993  68.3334913  40.3026493
  58.9266993  68.8124913  40.3686493  56.1986993  56.2054913  45.3886493
  55.6776993  55.5774913  45.0806493  56.7896993  55.7684913  45.8596493
  56.2096993  56.0474913  45.4126493  59.5046993  58.3384913  54.6866493
  59.6216993  57.8844913  53.9506493  59.7926993  59.1364913  54.4836493
  59.5646993  58.3894913  54.5476493  54.6246993  69.7684913  40.7286493
  55.2806993  69.1934913  40.7436493  55.0136993  70.5174913  40.5076493
  54.7796993  69.7934913  40.6986493  55.2376993  57.9354913  53.6706493
  54.4596993  57.5454913  53.5986493  55.7286993  57.5234913  53.0796493
  55.1946993  57.8164913  53.5726493  55.4426993  68.2554913  44.2286493
  55.8656993  67.8994913  43.5546493  55.7666993  67.8334913  44.9206493
  55.5526993  68.1404913  44.2316493  61.8866993  55.5784913  52.8386493
  62.0646993  54.7694913  52.5636493  61.7436993  56.0194913  52.0996493
  61.8916993  55.5244913  52.6886493  62.4806993  60.5044913  41.6116493
  62.7676993  60.2724913  40.8216493  63.2126993  60.5834913  42.0806493
  62.6306993  60.4814913  41.5646493  63.2026993  60.8434913  36.7326493
  63.4836993  61.6314913  36.9816493  62.4266993  61.0084913  36.3696493
  63.1296993  60.9844913  36.7156493  52.5856993  58.4834913  51.2566493
  52.5816993  59.0704913  51.9026493  53.1796993  58.7954913  50.6996493
  52.6726993  58.6164913  51.2696493  62.0616993  69.0144913  36.5486493
  61.8806993  69.5594913  37.2056493  62.8276993  69.3044913  36.2476493
  62.1476993  69.1384913  36.6016493  53.5226993  58.0784913  40.1716493
  53.4086993  57.2144913  40.2026493  53.0476993  58.3724913  40.8416493
  53.4356993  57.9944913  40.2746493  55.6646993  70.4884913  48.3866493
  54.9666993  69.9804913  48.5126493  55.9246993  70.2834913  47.5786493
  55.5996993  70.3834913  48.2856493  62.8266993  59.2864913  38.9166493
  62.3186993  58.6244913  38.6626493  62.8786993  59.7904913  38.2066493
  62.7596993  59.2634913  38.7746493  62.8266993  56.2274913  38.8076493
  62.3716993  55.8254913  38.1816493  63.5996993  56.3824913  38.4326493
  62.8736993  56.1914913  38.6596493  61.4246993  58.5944913  43.3296493
  61.4986993  59.1624913  42.6716493  61.5456993  59.0864913  44.0396493
  61.4526993  58.7514913  43.3376493  57.0256993  69.3394913  50.9536493
  57.8666993  69.4024913  50.7316493  56.9886993  69.7364913  51.7296493
  57.1446993  69.4074913  51.0356493  56.0326993  54.4174913  41.6776493
  56.5686993  55.1054913  41.6676493  56.0356993  54.1434913  40.8496493
  56.1116993  54.4784913  41.5536493  58.9886993  64.8504913  45.7026493
  59.1606993  64.6404913  46.5316493  58.3336993  64.3164913  45.4866493
  58.9176993  64.7404913  45.7936493  65.2166993  58.7644913  49.2176493
  65.1216993  59.0834913  50.0236493  64.6236993  58.1254913  49.1796493
  65.1146993  58.7164913  49.3316493  59.7386993  64.7884913  48.2926493
  59.7916993  65.6354913  48.4946493  59.4536993  64.4184913  49.0296493
  59.7046993  64.8584913  48.4306493  52.5596993  69.1594913  54.5036493
  53.3156993  69.5084913  54.7616493  52.7366993  68.3064913  54.4466493
  52.6976993  69.0844913  54.5336493  56.4806993  58.2274913  43.3316493
  56.7526993  57.7974913  42.6236493  56.3046993  57.5914913  43.9026493
  56.4946993  58.0704913  43.3116493  56.3046993  65.6544913  42.8806493
  57.1556993  65.5744913  42.7076493  55.9476993  64.9724913  42.4686493
  56.3776993  65.5414913  42.7936493  54.6216993  59.3294913  46.4136493
  55.4646993  59.5494913  46.3706493  54.2326993  59.9024913  45.8826493
  54.6886993  59.4464913  46.3286493  58.6726993  65.6614913  41.1156493
  59.3856993  66.1564913  41.2056493  58.8946993  65.0944913  40.4896493
  58.8106993  65.6504913  41.0366493  52.8286993  67.3044913  44.4356493
  52.1616993  67.7924913  44.7116493  53.5086993  67.8494913  44.4646493
  52.8306993  67.4564913  44.4806493  60.4756993  61.0144913  54.5316493
  59.9916993  61.5914913  54.9736493  60.4476993  61.3094913  53.7106493
  60.3996993  61.1434913  54.4756493  52.8946993  63.9884913  39.5386493
  52.7096993  63.1494913  39.6906493  53.5536993  63.9524913  38.9686493
  52.9646993  63.8594913  39.4766493  63.1956993  69.3644913  43.4426493
  62.6726993  69.9984913  43.1496493  63.5056993  69.0004913  42.7136493
  63.1636993  69.4044913  43.2916493  53.0666993  68.1524913  39.1136493
  53.6186993  68.7214913  39.4776493  52.8346993  67.6374913  39.7786493
  53.1136993  68.1604913  39.2656493  57.2706993  67.1524913  46.2026493
  57.7376993  67.4414913  46.8806493  57.8426993  66.6744913  45.7486493
  57.4246993  67.1244913  46.2356493  52.8966993  66.6014913  36.7416493
  53.6526993  66.1694913  36.7996493  52.9116993  67.1334913  37.4326493
  53.0106993  66.6164913  36.8526493  53.8366993  64.8224913  44.7466493
  54.2676993  64.6934913  43.9996493  53.6316993  65.6704913  44.7206493
  53.8696993  64.9284913  44.6326493  60.1826993  58.3864913  38.3966493
  60.1806993  58.2694913  37.5316493  60.0016993  59.2344913  38.4886493
  60.1556993  58.4944913  38.2826493  57.9206993  68.3384913  43.0286493
  58.0466993  69.1814913  43.2156493  58.5886993  67.9394913  43.4246493
  58.0386993  68.4044913  43.1146493  56.0506993  61.8214913  52.8906493
  55.5146993  61.3154913  53.3586493  56.0706993  61.4314913  52.1106493
  55.9736993  61.6884913  52.8446493  56.5356993  61.2184913  38.0306493
  56.4076993  60.7704913  38.7686493  55.9536993  60.8764913  37.4786493
  56.4306993  61.1014913  38.0586493  56.7026993  63.0484913  44.6296493
  55.9216993  62.9894913  44.2466493  56.7746993  62.2964913  45.0666493
  56.5976993  62.9294913  44.6376493  57.1326993  62.7854913  48.0976493
  57.1576993  62.1104913  47.5466493  56.4866993  63.2814913  47.7856493
  57.0416993  62.7584913  47.9706493  63.6726993  56.4044913  49.9226493
  63.8216993  55.5794913  49.6796493  64.0516993  56.4594913  50.7066493
  63.7506993  56.2904913  50.0026493  54.9316993  64.1404913  53.6566493
  54.8946993  64.6414913  52.9426493  55.2626993  63.3884913  53.3616493
  54.9746993  64.1024913  53.5076493  60.8306993  69.1904913  53.0916493
  61.1846993  69.0124913  53.8686493  60.3946993  68.4614913  52.8926493
  60.8186993  69.0564913  53.1776493  61.8026993  59.9374913  45.7296493
  62.2826993  60.6364913  45.9376493  62.1756993  59.2904913  46.1806493
  61.9286993  59.9454913  45.8266493  63.9916993  63.1064913  38.0036493
  63.9836993  63.8284913  37.5136493  63.3526993  63.2414913  38.5806493
  63.8966993  63.2334913  38.0166493  65.0086993  70.0424913  45.8286493
  64.4056993  69.7464913  45.2716493  65.5536993  70.4944913  45.3196493
  64.9996993  70.0654913  45.6706493  65.0216993  66.8934913  45.2286493
  64.2246993  67.1174913  45.5026493  65.2796993  66.2994913  45.8136493
  64.9416993  66.8384913  45.3556493  58.5846993  55.4484913  37.6646493
  58.6816993  55.3414913  38.5256493  57.8766993  55.9544913  37.5996493
  58.4946993  55.5074913  37.7826493  55.7066993  63.7554913  38.9076493
  56.0306993  62.9764913  38.6856493  56.3526993  64.1234913  39.3626493
  55.8496993  63.6944913  38.9416493  64.0126993  64.6974913  49.6746493
  63.8576993  65.3074913  50.2786493  64.5466993  64.1394913  50.0806493
  64.0686993  64.7054913  49.8236493  52.7036993  55.4164913  39.8756493
  52.8326993  54.7084913  39.3836493  52.3366993  55.0984913  40.6006493
  52.6686993  55.2644913  39.9106493  62.3966993  63.0974913  40.3326493
  62.4556993  63.7474913  40.9116493  62.2076993  62.4014913  40.8236493
  62.3776993  63.0904913  40.4906493  56.8926993  57.6144913  36.8446493
  56.3816993  57.6674913  36.1386493  57.6766993  57.8544913  36.5486493
  56.9326993  57.6574913  36.6966493  61.6196993  65.1444913  44.7636493
  60.7726993  64.9504913  44.8446493  61.9436993  64.9794913  45.5566493
  61.5416993  65.0914913  44.8926493  55.4676993  64.8374913  47.0796493
  56.1896993  65.3254913  47.0426493  55.1976993  64.8074913  46.2506493
  55.5346993  64.9054913  46.9516493  58.6976993  60.0084913  43.8146493
  59.5436993  59.8184913  43.9126493  58.3276993  59.2314913  43.6766493
  58.7676993  59.8654913  43.8086493  53.5186993  61.3464913  40.4696493
  54.0076993  61.0544913  41.1306493  53.6476993  60.7534913  39.8426493
  53.6096993  61.2154913  40.4746493  58.0436993  62.7804913  35.9556493
  57.4336993  62.3754913  36.4296493  57.6576993  62.8984913  35.1826493
  57.8966993  62.7374913  35.9116493  54.8626993  65.8894913  51.3576493
  54.4416993  65.3714913  50.7966493  54.5106993  66.6754913  51.2146493
  54.7486993  65.9294913  51.2536493  59.4986993  61.2414913  38.6656493
  59.7706993  62.0674913  38.7326493  58.6356993  61.3164913  38.5696493
  59.4116993  61.3744913  38.6606493  52.9786993  57.2114913  45.2016493
  53.0226993  57.5554913  44.4006493  53.7336993  57.4484913  45.5686493
  53.0966993  57.2974913  45.1376493  64.9196993  66.5504913  36.6716493
  65.6036993  66.0364913  36.5026493  64.5026993  66.5964913  35.9066493
  64.9586993  66.4814913  36.5336493  59.6016993  67.7004913  47.9756493
  59.3036993  68.2924913  48.5426493  59.6566993  68.1424913  47.2266493
  59.5656993  67.8534913  47.9486493  57.5806993  66.6504913  51.3736493
  56.7746993  66.3604913  51.5406493  57.4916993  67.5184913  51.3796493
  57.4486993  66.7354913  51.3986493  62.1176993  64.1234913  47.4666493
  62.5936993  64.4974913  48.0946493  61.2946993  64.2574913  47.7256493
  62.0666993  64.1984913  47.5976493  58.8276993  59.7264913  50.2076493
  58.9886993  58.9824913  50.6346493  58.7826993  59.4774913  49.3726493
  58.8446993  59.5794913  50.1476493  60.5796993  55.5344913  50.0876493
  61.2846993  55.8544913  49.6856493  60.8206993  54.7274913  50.3146493
  60.7186993  55.4624913  50.0616493  59.5646993  69.7444913  46.0836493
  58.9406993  70.3264913  45.9016493  59.8126993  69.4584913  45.2976493
  59.5086993  69.7884913  45.9406493  63.8736993  66.3784913  53.0726493
  64.6306993  66.6644913  52.7466493  63.3266993  66.4304913  52.3946493
  63.9046993  66.4284913  52.9236493  61.1586993  64.5204913  35.9986493
  60.3536993  64.3434913  35.7136493  61.1256993  65.3714913  36.1906493
  61.0346993  64.6194913  35.9856493  57.0886993  60.5874913  46.1486493
  57.5286993  60.4844913  45.4026493  57.6336993  60.2744913  46.7536493
  57.2336993  60.5264913  46.1276493  64.7926993  61.2264913  48.0386493
  65.0946993  61.6464913  48.7416493  64.8286993  60.3864913  48.2706493
  64.8426993  61.1644913  48.1766493  60.6356993  55.5724913  46.1956493
  59.8096993  55.4234913  46.4326493  60.5956993  55.6074913  45.3246493
  60.5076993  55.5554913  46.1016493  62.2766993  66.6124913  50.9836493
  61.4816993  66.5484913  51.3346493  62.3476993  67.4594913  50.7886493
  62.1696993  66.7274913  51.0066493  53.2006993  55.9704913  52.2306493
  53.0606993  56.7654913  51.8996493  52.4146993  55.7274913  52.5196493
  53.0636993  56.0524913  52.2246493  56.2646993  58.7144913  39.4556493
  56.3906993  58.3854913  38.6576493  55.4526993  58.4654913  39.6546493
  56.1636993  58.6294913  39.3676493  65.0216993  65.8674913  42.4996493
  65.0976993  66.2084913  43.2986493  65.1906993  65.0204913  42.6206493
  65.0576993  65.7924913  42.6356493  62.5436993  65.1414913  42.0646493
  62.2456993  64.8264913  42.8216493  63.2386993  65.6144913  42.2996493
  62.6026993  65.1644913  42.2116493  62.7656993  69.2594913  50.0916493
  63.4526993  69.1454913  50.6166493  62.8996993  70.0504913  49.7476493
  62.8866993  69.3594913  50.1186493  63.3886993  63.7234913  53.6656493
  63.7116993  64.4094913  53.2336493  62.6846993  64.0464913  54.0676493
  63.3316993  63.8724913  53.6606493  63.1736993  67.1874913  47.5246493
  62.4796993  67.5894913  47.8676493  63.8506993  67.6204913  47.8636493
  63.1706993  67.3104913  47.6256493  56.2416993  60.7254913  49.8716493
  56.6166993  61.3444913  49.3846493  56.9156993  60.2514913  50.1566493
  56.3966993  60.7474913  49.8416493  54.0166993  59.1734913  49.1466493
  54.0936993  59.0044913  48.2936493  54.7626993  59.5794913  49.3436493
  54.1376993  59.2084913  49.0496493  56.5706993  56.5834913  51.5576493
  56.4896993  55.7394913  51.7636493  56.2566993  56.6274913  50.7446493
  56.5126993  56.4654913  51.4676493  63.4956993  68.7784913  40.6936493
  63.2906993  69.6114913  40.5346493  62.7206993  68.3964913  40.8156493
  63.3506993  68.8454913  40.6886493  53.4136993  64.3994913  49.3706493
  53.7336993  64.6184913  48.5896493  53.3136993  63.5344913  49.3156493
  53.4456993  64.3044913  49.2476493  54.8696993  60.3354913  35.9886493
  54.1976993  60.3494913  36.5446493  54.9646993  59.4874913  35.8046493
  54.7846993  60.2124913  36.0436493  64.5566993  56.7594913  52.7246493
  64.6486993  57.4714913  53.2186493  63.9196993  56.3144913  53.1216493
  64.4756993  56.7984913  52.8566493  63.5506993  56.9494913  43.5786493
  62.8506993  57.4674913  43.5226493  63.5886993  56.5694913  42.7946493
  63.4526993  56.9704913  43.4546493  58.8576993  69.0404913  37.1026493
  59.2986993  69.1204913  37.8506493  58.0526993  68.8244913  37.3606493
  58.8036993  69.0204913  37.2516493  58.1766993  63.6914913  50.7556493
  57.7806993  64.4654913  50.8306493  57.7706993  63.3184913  50.0796493
  58.0586993  63.7504913  50.6666493  56.1866993  68.1104913  37.7036493
  55.9426993  67.8034913  38.4836493  56.1536993  67.4074913  37.1876493
  56.1456993  67.9614913  37.7426493  59.0056993  66.3554913  36.4466493
  58.1876993  66.0874913  36.5866493  58.9776993  67.2074913  36.6316493
  58.8806993  66.4424913  36.4946493  58.6056993  56.6684913  48.2056493
  57.7416993  56.7524913  48.2856493  58.8256993  56.1544913  48.8746493
  58.5106993  56.6054913  48.3166493  62.7086993  57.4164913  46.5796493
  61.9716993  56.9624913  46.6926493  63.2796993  57.0144913  47.1026493
  62.6836993  57.2894913  46.6736493  65.4406993  68.2644913  48.3676493
  65.6466993  68.5654913  49.1596493  65.3796993  68.9864913  47.8826493
  65.4616993  68.4154913  48.4126493  60.2116993  61.7454913  51.7836493
  59.8896993  61.1694913  51.2136493  59.8526993  62.5004913  51.5376493
  60.1116993  61.7714913  51.6636493  61.0076993  54.9974913  36.4106493
  61.0856993  55.2444913  35.5776493  60.2646993  55.3744913  36.6686493
  60.9096993  55.0894913  36.3256493  55.8256993  56.7514913  48.8536493
  55.4826993  55.9844913  48.6196493  55.1306993  57.2754913  48.9176493
  55.6726993  56.7154913  48.8286493  64.8716993  55.6074913  45.8306493
  65.5416993  56.1514913  45.9576493  64.3686993  56.0314913  45.2576493
  64.8966993  55.7504913  45.7646493  64.2306993  61.4154913  43.3236493
  64.7816993  60.8084913  43.6236493  63.8056993  61.6784913  44.0386493
  64.2496993  61.3644913  43.4726493  54.4786993  60.0654913  42.8096493
  54.1106993  60.3674913  43.5406493  55.0126993  59.4364913  43.0936493
  54.5026993  60.0174913  42.9596493  54.1666993  68.4734913  50.3206493
  53.5926993  68.8894913  50.8296493  54.8996993  68.9384913  50.4156493
  54.1906993  68.6034913  50.4096493  60.1196993  64.1374913  38.8236493
  60.2196993  64.2764913  37.9686493  60.9376993  64.0774913  39.1196493
  60.2546993  64.1484913  38.7406493  65.3546993  68.4664913  38.6256493
  65.1036993  68.3384913  39.4516493  65.0376993  67.7714913  38.2046493
  65.2706993  68.3454913  38.6856493  59.2586993  57.1124913  51.9396493
  59.4926993  56.5364913  51.3266493  58.4166993  56.9314913  52.0806493
  59.1686993  57.0004913  51.8696493  62.2406993  66.6744913  38.0556493
  62.9576993  66.3274913  37.6996493  62.2066993  67.4744913  37.7076493
  62.3416993  66.7414913  37.9516493  63.6496993  55.3154913  22.2944083
  63.4046993  55.8034913  21.6144083  64.5126993  55.2424913  22.1944083
  63.7406993  55.3764913  22.1794083  63.4586993  62.2314913  26.9654083
  62.9346993  62.8274913  27.3284083  63.8556993  61.8634913  27.6494083
  63.4396993  62.2654913  27.1204083  53.3276993  66.3714913  22.4214083
  52.8866993  66.4894913  23.1644083  53.0446993  65.5964913  22.1364083
  53.2206993  66.2744913  22.4894083  53.0706993  60.1634913  18.9284083
  52.2926993  60.3254913  18.5684083  53.1096993  59.2924913  18.9504083
  52.9616993  60.0584913  18.8784083  56.2096993  65.4264913  17.6004083
  55.8176993  65.0554913  16.9144083  56.1296993  64.8284913  18.2294083
  56.1396993  65.2834913  17.5914083  55.8366993  67.0674913  21.5004083
  56.4446993  66.8974913  22.1034083  55.0856993  66.9274913  21.9214083
  55.8156993  67.0214913  21.6514083  60.1186993  56.4024913  21.4494083
  60.0486993  57.0794913  20.9034083  60.8596993  56.0144913  21.2004083
  60.2176993  56.4454913  21.3314083  54.7276993  70.1584913  17.5774083
  55.1946993  70.2424913  16.8454083  55.1826993  69.5804913  18.0464083
  54.8636993  70.0854913  17.5384083  53.2676993  69.1064913  28.6764083
  53.3966993  68.8264913  29.4924083  52.6576993  68.5654913  28.3674083
  53.1966993  68.9854913  28.7514083  59.8416993  66.6314913  33.7434083
  59.6056993  66.6284913  34.5834083  59.0936993  66.4834913  33.3194083
  59.6956993  66.6084913  33.8044083  54.7136993  63.6274913  22.8784083
  54.2516993  63.2354913  22.2514083  55.4136993  63.1144913  22.9704083
  54.7486993  63.4944913  22.7994083  59.2216993  59.2374913  28.2254083
  59.8996993  59.2554913  27.6764083  59.1766993  58.4014913  28.4704083
  59.3146993  59.1164913  28.1804083  56.7146993  61.7274913  22.9014083
  57.5316993  61.5404913  23.1444083  56.2376993  61.1134913  23.2974083
  56.7646993  61.6094913  22.9964083  60.9186993  67.7084913  25.5114083
  61.2666993  66.9094913  25.5414083  61.5836993  68.2124913  25.2564083
  61.0686993  67.6644913  25.4784083  60.9756993  67.1574913  21.7224083
  61.3066993  66.5134913  22.2084083  61.2156993  66.9464913  20.9114083
  61.0596993  67.0314913  21.6744083  62.9436993  61.2884913  33.0614083
  62.0956993  61.1894913  32.8834083  62.9726993  62.0334913  33.5154083
  62.8226993  61.3844913  33.1024083  57.3116993  56.8214913  22.1674083
  57.0156993  57.3224913  21.5174083  58.1786993  56.8994913  22.1104083
  57.3956993  56.9074913  22.0634083  60.2906993  55.9634913  24.3904083
  60.3636993  56.8234913  24.5194083  60.2526993  55.8884913  23.5224083
  60.2956993  56.0794913  24.2814083  64.9636993  58.8894913  16.6894083
  64.5136993  59.5704913  16.9964083  65.0776993  58.3854913  17.3924083
  64.9146993  58.9154913  16.8384083  53.1696993  61.3884913  25.8914083
  52.9136993  62.2194913  25.8164083  52.5056993  61.0054913  26.3084083
  53.0336993  61.4544913  25.9424083  58.9196993  68.9424913  21.2714083
  58.3406993  68.6674913  21.8634083  59.5436993  68.3334913  21.2964083
  58.9266993  68.8124913  21.3624083  56.1986993  56.2054913  26.3824083
  55.6776993  55.5774913  26.0744083  56.7896993  55.7684913  26.8534083
  56.2096993  56.0474913  26.4064083  59.5046993  58.3384913  35.6804083
  59.6216993  57.8844913  34.9444083  59.7926993  59.1364913  35.4774083
  59.5646993  58.3894913  35.5414083  54.6246993  69.7684913  21.7224083
  55.2806993  69.1934913  21.7374083  55.0136993  70.5174913  21.5014083
  54.7796993  69.7934913  21.6924083  55.2376993  57.9354913  34.6644083
  54.4596993  57.5454913  34.5924083  55.7286993  57.5234913  34.0734083
  55.1946993  57.8164913  34.5664083  55.4426993  68.2554913  25.2224083
  55.8656993  67.8994913  24.5484083  55.7666993  67.8334913  25.9144083
  55.5526993  68.1404913  25.2254083  61.8866993  55.5784913  33.8324083
  62.0646993  54.7694913  33.5574083  61.7436993  56.0194913  33.0934083
  61.8916993  55.5244913  33.6824083  62.4806993  60.5044913  22.6054083
  62.7676993  60.2724913  21.8154083  63.2126993  60.5834913  23.0744083
  62.6306993  60.4814913  22.5584083  63.2026993  60.8434913  17.7264083
  63.4836993  61.6314913  17.9754083  62.4266993  61.0084913  17.3634083
  63.1296993  60.9844913  17.7094083  52.5856993  58.4834913  32.2504083
  52.5816993  59.0704913  32.8964083  53.1796993  58.7954913  31.6934083
  52.6726993  58.6164913  32.2634083  62.0616993  69.0144913  17.5424083
  61.8806993  69.5594913  18.1994083  62.8276993  69.3044913  17.2414083
  62.1476993  69.1384913  17.5954083  53.5226993  58.0784913  21.1654083
  53.4086993  57.2144913  21.1964083  53.0476993  58.3724913  21.8354083
  53.4356993  57.9944913  21.2684083  55.6646993  70.4884913  29.3804083
  54.9666993  69.9804913  29.5064083  55.9246993  70.2834913  28.5724083
  55.5996993  70.3834913  29.2794083  62.8266993  59.2864913  19.9104083
  62.3186993  58.6244913  19.6564083  62.8786993  59.7904913  19.2004083
  62.7596993  59.2634913  19.7684083  62.8266993  56.2274913  19.8014083
  62.3716993  55.8254913  19.1754083  63.5996993  56.3824913  19.4264083
  62.8736993  56.1914913  19.6534083  61.4246993  58.5944913  24.3234083
  61.4986993  59.1624913  23.6654083  61.5456993  59.0864913  25.0334083
  61.4526993  58.7514913  24.3314083  57.0256993  69.3394913  31.9474083
  57.8666993  69.4024913  31.7254083  56.9886993  69.7364913  32.7234083
  57.1446993  69.4074913  32.0294083  56.0326993  54.4174913  22.6714083
  56.5686993  55.1054913  22.6614083  56.0356993  54.1434913  21.8434083
  56.1116993  54.4784913  22.5474083  58.9886993  64.8504913  26.6964083
  59.1606993  64.6404913  27.5254083  58.3336993  64.3164913  26.4804083
  58.9176993  64.7404913  26.7874083  65.2166993  58.7644913  30.2114083
  65.1216993  59.0834913  31.0174083  64.6236993  58.1254913  30.1734083
  65.1146993  58.7164913  30.3254083  59.7386993  64.7884913  29.2864083
  59.7916993  65.6354913  29.4884083  59.4536993  64.4184913  30.0234083
  59.7046993  64.8584913  29.4244083  52.5596993  69.1594913  35.4974083
  53.3156993  69.5084913  35.7554083  52.7366993  68.3064913  35.4404083
  52.6976993  69.0844913  35.5274083  56.4806993  58.2274913  24.3254083
  56.7526993  57.7974913  23.6174083  56.3046993  57.5914913  24.8964083
  56.4946993  58.0704913  24.3054083  56.3046993  65.6544913  23.8744083
  57.1556993  65.5744913  23.7014083  55.9476993  64.9724913  23.4624083
  56.3776993  65.5414913  23.7874083  54.6216993  59.3294913  27.4074083
  55.4646993  59.5494913  27.3644083  54.2326993  59.9024913  26.8764083
  54.6886993  59.4464913  27.3224083  58.6726993  65.6614913  22.1094083
  59.3856993  66.1564913  22.1994083  58.8946993  65.0944913  21.4834083
  58.8106993  65.6504913  22.0304083  52.8286993  67.3044913  25.4294083
  52.1616993  67.7924913  25.7054083  53.5086993  67.8494913  25.4584083
  52.8306993  67.4564913  25.4744083  60.4756993  61.0144913  35.5254083
  59.9916993  61.5914913  35.9674083  60.4476993  61.3094913  34.7044083
  60.3996993  61.1434913  35.4694083  52.8946993  63.9884913  20.5324083
  52.7096993  63.1494913  20.6844083  53.5536993  63.9524913  19.9624083
  52.9646993  63.8594913  20.4704083  63.1956993  69.3644913  24.4364083
  62.6726993  69.9984913  24.1434083  63.5056993  69.0004913  23.7074083
  63.1636993  69.4044913  24.2854083  53.0666993  68.1524913  20.1074083
  53.6186993  68.7214913  20.4714083  52.8346993  67.6374913  20.7724083
  53.1136993  68.1604913  20.2594083  57.2706993  67.1524913  27.1964083
  57.7376993  67.4414913  27.8744083  57.8426993  66.6744913  26.7424083
  57.4246993  67.1244913  27.2294083  52.8966993  66.6014913  17.7354083
  53.6526993  66.1694913  17.7934083  52.9116993  67.1334913  18.4264083
  53.0106993  66.6164913  17.8464083  53.8366993  64.8224913  25.7404083
  54.2676993  64.6934913  24.9934083  53.6316993  65.6704913  25.7144083
  53.8696993  64.9284913  25.6264083  60.1826993  58.3864913  19.3904083
  60.1806993  58.2694913  18.5254083  60.0016993  59.2344913  19.4824083
  60.1556993  58.4944913  19.2764083  57.9206993  68.3384913  24.0224083
  58.0466993  69.1814913  24.2094083  58.5886993  67.9394913  24.4184083
  58.0386993  68.4044913  24.1084083  56.0506993  61.8214913  33.8844083
  55.5146993  61.3154913  34.3524083  56.0706993  61.4314913  33.1044083
  55.9736993  61.6884913  33.8384083  56.5356993  61.2184913  19.0244083
  56.4076993  60.7704913  19.7624083  55.9536993  60.8764913  18.4724083
  56.4306993  61.1014913  19.0524083  56.7026993  63.0484913  25.6234083
  55.9216993  62.9894913  25.2404083  56.7746993  62.2964913  26.0604083
  56.5976993  62.9294913  25.6314083  57.1326993  62.7854913  29.0914083
  57.1576993  62.1104913  28.5404083  56.4866993  63.2814913  28.7794083
  57.0416993  62.7584913  28.9644083  63.6726993  56.4044913  30.9164083
  63.8216993  55.5794913  30.6734083  64.0516993  56.4594913  31.7004083
  63.7506993  56.2904913  30.9964083  54.9316993  64.1404913  34.6504083
  54.8946993  64.6414913  33.9364083  55.2626993  63.3884913  34.3554083
  54.9746993  64.1024913  34.5014083  60.8306993  69.1904913  34.0854083
  61.1846993  69.0124913  34.8624083  60.3946993  68.4614913  33.8864083
  60.8186993  69.0564913  34.1714083  61.8026993  59.9374913  26.7234083
  62.2826993  60.6364913  26.9314083  62.1756993  59.2904913  27.1744083
  61.9286993  59.9454913  26.8204083  63.9916993  63.1064913  18.9974083
  63.9836993  63.8284913  18.5074083  63.3526993  63.2414913  19.5744083
  63.8966993  63.2334913  19.0104083  65.0086993  70.0424913  26.8224083
  64.4056993  69.7464913  26.2654083  65.5536993  70.4944913  26.3134083
  64.9996993  70.0654913  26.6644083  65.0216993  66.8934913  26.2224083
  64.2246993  67.1174913  26.4964083  65.2796993  66.2994913  26.8074083
  64.9416993  66.8384913  26.3494083  58.5846993  55.4484913  18.6584083
  58.6816993  55.3414913  19.5194083  57.8766993  55.9544913  18.5934083
  58.4946993  55.5074913  18.7764083  55.7066993  63.7554913  19.9014083
  56.0306993  62.9764913  19.6794083  56.3526993  64.1234913  20.3564083
  55.8496993  63.6944913  19.9354083  64.0126993  64.6974913  30.6684083
  63.8576993  65.3074913  31.2724083  64.5466993  64.1394913  31.0744083
  64.0686993  64.7054913  30.8174083  52.7036993  55.4164913  20.8694083
  52.8326993  54.7084913  20.3774083  52.3366993  55.0984913  21.5944083
  52.6686993  55.2644913  20.9044083  62.3966993  63.0974913  21.3264083
  62.4556993  63.7474913  21.9054083  62.2076993  62.4014913  21.8174083
  62.3776993  63.0904913  21.4844083  56.8926993  57.6144913  17.8384083
  56.3816993  57.6674913  17.1324083  57.6766993  57.8544913  17.5424083
  56.9326993  57.6574913  17.6904083  61.6196993  65.1444913  25.7574083
  60.7726993  64.9504913  25.8384083  61.9436993  64.9794913  26.5504083
  61.5416993  65.0914913  25.8864083  55.4676993  64.8374913  28.0734083
  56.1896993  65.3254913  28.0364083  55.1976993  64.8074913  27.2444083
  55.5346993  64.9054913  27.9454083  58.6976993  60.0084913  24.8084083
  59.5436993  59.8184913  24.9064083  58.3276993  59.2314913  24.6704083
  58.7676993  59.8654913  24.8024083  53.5186993  61.3464913  21.4634083
  54.0076993  61.0544913  22.1244083  53.6476993  60.7534913  20.8364083
  53.6096993  61.2154913  21.4684083  58.0436993  62.7804913  16.9494083
  57.4336993  62.3754913  17.4234083  57.6576993  62.8984913  16.1764083
  57.8966993  62.7374913  16.9054083  54.8626993  65.8894913  32.3514083
  54.4416993  65.3714913  31.7904083  54.5106993  66.6754913  32.2084083
  54.7486993  65.9294913  32.2474083  59.4986993  61.2414913  19.6594083
  59.7706993  62.0674913  19.7264083  58.6356993  61.3164913  19.5634083
  59.4116993  61.3744913  19.6544083  52.9786993  57.2114913  26.1954083
  53.0226993  57.5554913  25.3944083  53.7336993  57.4484913  26.5624083
  53.0966993  57.2974913  26.1314083  64.9196993  66.5504913  17.6654083
  65.6036993  66.0364913  17.4964083  64.5026993  66.5964913  16.9004083
  64.9586993  66.4814913  17.5274083  59.6016993  67.7004913  28.9694083
  59.3036993  68.2924913  29.5364083  59.6566993  68.1424913  28.2204083
  59.5656993  67.8534913  28.9424083  57.5806993  66.6504913  32.3674083
  56.7746993  66.3604913  32.5344083  57.4916993  67.5184913  32.3734083
  57.4486993  66.7354913  32.3924083  62.1176993  64.1234913  28.4604083
  62.5936993  64.4974913  29.0884083  61.2946993  64.2574913  28.7194083
  62.0666993  64.1984913  28.5914083  58.8276993  59.7264913  31.2014083
  58.9886993  58.9824913  31.6284083  58.7826993  59.4774913  30.3664083
  58.8446993  59.5794913  31.1414083  60.5796993  55.5344913  31.0814083
  61.2846993  55.8544913  30.6794083  60.8206993  54.7274913  31.3084083
  60.7186993  55.4624913  31.0554083  59.5646993  69.7444913  27.0774083
  58.9406993  70.3264913  26.8954083  59.8126993  69.4584913  26.2914083
  59.5086993  69.7884913  26.9344083  63.8736993  66.3784913  34.0664083
  64.6306993  66.6644913  33.7404083  63.3266993  66.4304913  33.3884083
  63.9046993  66.4284913  33.9174083  61.1586993  64.5204913  16.9924083
  60.3536993  64.3434913  16.7074083  61.1256993  65.3714913  17.1844083
  61.0346993  64.6194913  16.9794083  57.0886993  60.5874913  27.1424083
  57.5286993  60.4844913  26.3964083  57.6336993  60.2744913  27.7474083
  57.2336993  60.5264913  27.1214083  64.7926993  61.2264913  29.0324083
  65.0946993  61.6464913  29.7354083  64.8286993  60.3864913  29.2644083
  64.8426993  61.1644913  29.1704083  60.6356993  55.5724913  27.1894083
  59.8096993  55.4234913  27.4264083  60.5956993  55.6074913  26.3184083
  60.5076993  55.5554913  27.0954083  62.2766993  66.6124913  31.9774083
  61.4816993  66.5484913  32.3284083  62.3476993  67.4594913  31.7824083
  62.1696993  66.7274913  32.0004083  53.2006993  55.9704913  33.2244083
  53.0606993  56.7654913  32.8934083  52.4146993  55.7274913  33.5134083
  53.0636993  56.0524913  33.2184083  56.2646993  58.7144913  20.4494083
  56.3906993  58.3854913  19.6514083  55.4526993  58.4654913  20.6484083
  56.1636993  58.6294913  20.3614083  65.0216993  65.8674913  23.4934083
  65.0976993  66.2084913  24.2924083  65.1906993  65.0204913  23.6144083
  65.0576993  65.7924913  23.6294083  62.5436993  65.1414913  23.0584083
  62.2456993  64.8264913  23.8154083  63.2386993  65.6144913  23.2934083
  62.6026993  65.1644913  23.2054083  62.7656993  69.2594913  31.0854083
  63.4526993  69.1454913  31.6104083  62.8996993  70.0504913  30.7414083
  62.8866993  69.3594913  31.1124083  63.3886993  63.7234913  34.6594083
  63.7116993  64.4094913  34.2274083  62.6846993  64.0464913  35.0614083
  63.3316993  63.8724913  34.6544083  63.1736993  67.1874913  28.5184083
  62.4796993  67.5894913  28.8614083  63.8506993  67.6204913  28.8574083
  63.1706993  67.3104913  28.6194083  56.2416993  60.7254913  30.8654083
  56.6166993  61.3444913  30.3784083  56.9156993  60.2514913  31.1504083
  56.3966993  60.7474913  30.8354083  54.0166993  59.1734913  30.1404083
  54.0936993  59.0044913  29.2874083  54.7626993  59.5794913  30.3374083
  54.1376993  59.2084913  30.0434083  56.5706993  56.5834913  32.5514083
  56.4896993  55.7394913  32.7574083  56.2566993  56.6274913  31.7384083
  56.5126993  56.4654913  32.4614083  63.4956993  68.7784913  21.6874083
  63.2906993  69.6114913  21.5284083  62.7206993  68.3964913  21.8094083
  63.3506993  68.8454913  21.6824083  53.4136993  64.3994913  30.3644083
  53.7336993  64.6184913  29.5834083  53.3136993  63.5344913  30.3094083
  53.4456993  64.3044913  30.2414083  54.8696993  60.3354913  16.9824083
  54.1976993  60.3494913  17.5384083  54.9646993  59.4874913  16.7984083
  54.7846993  60.2124913  17.0374083  64.5566993  56.7594913  33.7184083
  64.6486993  57.4714913  34.2124083  63.9196993  56.3144913  34.1154083
  64.4756993  56.7984913  33.8504083  63.5506993  56.9494913  24.5724083
  62.8506993  57.4674913  24.5164083  63.5886993  56.5694913  23.7884083
  63.4526993  56.9704913  24.4484083  58.8576993  69.0404913  18.0964083
  59.2986993  69.1204913  18.8444083  58.0526993  68.8244913  18.3544083
  58.8036993  69.0204913  18.2454083  58.1766993  63.6914913  31.7494083
  57.7806993  64.4654913  31.8244083  57.7706993  63.3184913  31.0734083
  58.0586993  63.7504913  31.6604083  56.1866993  68.1104913  18.6974083
  55.9426993  67.8034913  19.4774083  56.1536993  67.4074913  18.1814083
  56.1456993  67.9614913  18.7364083  59.0056993  66.3554913  17.4404083
  58.1876993  66.0874913  17.5804083  58.9776993  67.2074913  17.6254083
  58.8806993  66.4424913  17.4884083  58.6056993  56.6684913  29.1994083
  57.7416993  56.7524913  29.2794083  58.8256993  56.1544913  29.8684083
  58.5106993  56.6054913  29.3104083  62.7086993  57.4164913  27.5734083
  61.9716993  56.9624913  27.6864083  63.2796993  57.0144913  28.0964083
  62.6836993  57.2894913  27.6674083  65.4406993  68.2644913  29.3614083
  65.6466993  68.5654913  30.1534083  65.3796993  68.9864913  28.8764083
  65.4616993  68.4154913  29.4064083  60.2116993  61.7454913  32.7774083
  59.8896993  61.1694913  32.2074083  59.8526993  62.5004913  32.5314083
  60.1116993  61.7714913  32.6574083  61.0076993  54.9974913  17.4044083
  61.0856993  55.2444913  16.5714083  60.2646993  55.3744913  17.6624083
  60.9096993  55.0894913  17.3194083  55.8256993  56.7514913  29.8474083
  55.4826993  55.9844913  29.6134083  55.1306993  57.2754913  29.9114083
  55.6726993  56.7154913  29.8224083  64.8716993  55.6074913  26.8244083
  65.5416993  56.1514913  26.9514083  64.3686993  56.0314913  26.2514083
  64.8966993  55.7504913  26.7584083  64.2306993  61.4154913  24.3174083
  64.7816993  60.8084913  24.6174083  63.8056993  61.6784913  25.0324083
  64.2496993  61.3644913  24.4664083  54.4786993  60.0654913  23.8034083
  54.1106993  60.3674913  24.5344083  55.0126993  59.4364913  24.0874083
  54.5026993  60.0174913  23.9534083  54.1666993  68.4734913  31.3144083
  53.5926993  68.8894913  31.8234083  54.8996993  68.9384913  31.4094083
  54.1906993  68.6034913  31.4034083  60.1196993  64.1374913  19.8174083
  60.2196993  64.2764913  18.9624083  60.9376993  64.0774913  20.1134083
  60.2546993  64.1484913  19.7344083  65.3546993  68.4664913  19.6194083
  65.1036993  68.3384913  20.4454083  65.0376993  67.7714913  19.1984083
  65.2706993  68.3454913  19.6794083  59.2586993  57.1124913  32.9334083
  59.4926993  56.5364913  32.3204083  58.4166993  56.9314913  33.0744083
  59.1686993  57.0004913  32.8634083  62.2406993  66.6744913  19.0494083
  62.9576993  66.3274913  18.6934083  62.2066993  67.4744913  18.7014083
  62.3416993  66.7414913  18.9454083  63.6496993  55.3154913   3.2881673
  63.4046993  55.8034913   2.6081673  64.5126993  55.2424913   3.1881673
  63.7406993  55.3764913   3.1731673  63.4586993  62.2314913   7.9591673
  62.9346993  62.8274913   8.3221673  63.8556993  61.8634913   8.6431673
  63.4396993  62.2654913   8.1141673  53.3276993  66.3714913   3.4151673
  52.8866993  66.4894913   4.1581673  53.0446993  65.5964913   3.1301673
  53.2206993  66.2744913   3.4831673  55.8366993  67.0674913   2.4941673
  56.4446993  66.8974913   3.0971673  55.0856993  66.9274913   2.9151673
  55.8156993  67.0214913   2.6451673  60.1186993  56.4024913   2.4431673
  60.0486993  57.0794913   1.8971673  60.8596993  56.0144913   2.1941673
  60.2176993  56.4454913   2.3251673  53.2676993  69.1064913   9.6701673
  53.3966993  68.8264913  10.4861673  52.6576993  68.5654913   9.3611673
  53.1966993  68.9854913   9.7451673  59.8416993  66.6314913  14.7371673
  59.6056993  66.6284913  15.5771673  59.0936993  66.4834913  14.3131673
  59.6956993  66.6084913  14.7981673  54.7136993  63.6274913   3.8721673
  54.2516993  63.2354913   3.2451673  55.4136993  63.1144913   3.9641673
  54.7486993  63.4944913   3.7931673  59.2216993  59.2374913   9.2191673
  59.8996993  59.2554913   8.6701673  59.1766993  58.4014913   9.4641673
  59.3146993  59.1164913   9.1741673  56.7146993  61.7274913   3.8951673
  57.5316993  61.5404913   4.1381673  56.2376993  61.1134913   4.2911673
  56.7646993  61.6094913   3.9901673  60.9186993  67.7084913   6.5051673
  61.2666993  66.9094913   6.5351673  61.5836993  68.2124913   6.2501673
  61.0686993  67.6644913   6.4721673  60.9756993  67.1574913   2.7161673
  61.3066993  66.5134913   3.2021673  61.2156993  66.9464913   1.9051673
  61.0596993  67.0314913   2.6681673  62.9436993  61.2884913  14.0551673
  62.0956993  61.1894913  13.8771673  62.9726993  62.0334913  14.5091673
  62.8226993  61.3844913  14.0961673  57.3116993  56.8214913   3.1611673
  57.0156993  57.3224913   2.5111673  58.1786993  56.8994913   3.1041673
  57.3956993  56.9074913   3.0571673  60.2906993  55.9634913   5.3841673
  60.3636993  56.8234913   5.5131673  60.2526993  55.8884913   4.5161673
  60.2956993  56.0794913   5.2751673  53.1696993  61.3884913   6.8851673
  52.9136993  62.2194913   6.8101673  52.5056993  61.0054913   7.3021673
  53.0336993  61.4544913   6.9361673  58.9196993  68.9424913   2.2651673
  58.3406993  68.6674913   2.8571673  59.5436993  68.3334913   2.2901673
  58.9266993  68.8124913   2.3561673  56.1986993  56.2054913   7.3761673
  55.6776993  55.5774913   7.0681673  56.7896993  55.7684913   7.8471673
  56.2096993  56.0474913   7.4001673  59.5046993  58.3384913  16.6741673
  59.6216993  57.8844913  15.9381673  59.7926993  59.1364913  16.4711673
  59.5646993  58.3894913  16.5351673  54.6246993  69.7684913   2.7161673
  55.2806993  69.1934913   2.7311673  55.0136993  70.5174913   2.4951673
  54.7796993  69.7934913   2.6861673  55.2376993  57.9354913  15.6581673
  54.4596993  57.5454913  15.5861673  55.7286993  57.5234913  15.0671673
  55.1946993  57.8164913  15.5601673  55.4426993  68.2554913   6.2161673
  55.8656993  67.8994913   5.5421673  55.7666993  67.8334913   6.9081673
  55.5526993  68.1404913   6.2191673  61.8866993  55.5784913  14.8261673
  62.0646993  54.7694913  14.5511673  61.7436993  56.0194913  14.0871673
  61.8916993  55.5244913  14.6761673  62.4806993  60.5044913   3.5991673
  62.7676993  60.2724913   2.8091673  63.2126993  60.5834913   4.0681673
  62.6306993  60.4814913   3.5521673  52.5856993  58.4834913  13.2441673
  52.5816993  59.0704913  13.8901673  53.1796993  58.7954913  12.6871673
  52.6726993  58.6164913  13.2571673  53.5226993  58.0784913   2.1591673
  53.4086993  57.2144913   2.1901673  53.0476993  58.3724913   2.8291673
  53.4356993  57.9944913   2.2621673  55.6646993  70.4884913  10.3741673
  54.9666993  69.9804913  10.5001673  55.9246993  70.2834913   9.5661673
  55.5996993  70.3834913  10.2731673  61.4246993  58.5944913   5.3171673
  61.4986993  59.1624913   4.6591673  61.5456993  59.0864913   6.0271673
  61.4526993  58.7514913   5.3251673  57.0256993  69.3394913  12.9411673
  57.8666993  69.4024913  12.7191673  56.9886993  69.7364913  13.7171673
  57.1446993  69.4074913  13.0231673  56.0326993  54.4174913   3.6651673
  56.5686993  55.1054913   3.6551673  56.0356993  54.1434913   2.8371673
  56.1116993  54.4784913   3.5411673  58.9886993  64.8504913   7.6901673
  59.1606993  64.6404913   8.5191673  58.3336993  64.3164913   7.4741673
  58.9176993  64.7404913   7.7811673  65.2166993  58.7644913  11.2051673
  65.1216993  59.0834913  12.0111673  64.6236993  58.1254913  11.1671673
  65.1146993  58.7164913  11.3191673  59.7386993  64.7884913  10.2801673
  59.7916993  65.6354913  10.4821673  59.4536993  64.4184913  11.0171673
  59.7046993  64.8584913  10.4181673  52.5596993  69.1594913  16.4911673
  53.3156993  69.5084913  16.7491673  52.7366993  68.3064913  16.4341673
  52.6976993  69.0844913  16.5211673  56.4806993  58.2274913   5.3191673
  56.7526993  57.7974913   4.6111673  56.3046993  57.5914913   5.8901673
  56.4946993  58.0704913   5.2991673  56.3046993  65.6544913   4.8681673
  57.1556993  65.5744913   4.6951673  55.9476993  64.9724913   4.4561673
  56.3776993  65.5414913   4.7811673  54.6216993  59.3294913   8.4011673
  55.4646993  59.5494913   8.3581673  54.2326993  59.9024913   7.8701673
  54.6886993  59.4464913   8.3161673  58.6726993  65.6614913   3.1031673
  59.3856993  66.1564913   3.1931673  58.8946993  65.0944913   2.4771673
  58.8106993  65.6504913   3.0241673  52.8286993  67.3044913   6.4231673
  52.1616993  67.7924913   6.6991673  53.5086993  67.8494913   6.4521673
  52.8306993  67.4564913   6.4681673  60.4756993  61.0144913  16.5191673
  59.9916993  61.5914913  16.9611673  60.4476993  61.3094913  15.6981673
  60.3996993  61.1434913  16.4631673  63.1956993  69.3644913   5.4301673
  62.6726993  69.9984913   5.1371673  63.5056993  69.0004913   4.7011673
  63.1636993  69.4044913   5.2791673  57.2706993  67.1524913   8.1901673
  57.7376993  67.4414913   8.8681673  57.8426993  66.6744913   7.7361673
  57.4246993  67.1244913   8.2231673  53.8366993  64.8224913   6.7341673
  54.2676993  64.6934913   5.9871673  53.6316993  65.6704913   6.7081673
  53.8696993  64.9284913   6.6201673  57.9206993  68.3384913   5.0161673
  58.0466993  69.1814913   5.2031673  58.5886993  67.9394913   5.4121673
  58.0386993  68.4044913   5.1021673  56.0506993  61.8214913  14.8781673
  55.5146993  61.3154913  15.3461673  56.0706993  61.4314913  14.0981673
  55.9736993  61.6884913  14.8321673  56.7026993  63.0484913   6.6171673
  55.9216993  62.9894913   6.2341673  56.7746993  62.2964913   7.0541673
  56.5976993  62.9294913   6.6251673  57.1326993  62.7854913  10.0851673
  57.1576993  62.1104913   9.5341673  56.4866993  63.2814913   9.7731673
  57.0416993  62.7584913   9.9581673  63.6726993  56.4044913  11.9101673
  63.8216993  55.5794913  11.6671673  64.0516993  56.4594913  12.6941673
  63.7506993  56.2904913  11.9901673  54.9316993  64.1404913  15.6441673
  54.8946993  64.6414913  14.9301673  55.2626993  63.3884913  15.3491673
  54.9746993  64.1024913  15.4951673  60.8306993  69.1904913  15.0791673
  61.1846993  69.0124913  15.8561673  60.3946993  68.4614913  14.8801673
  60.8186993  69.0564913  15.1651673  61.8026993  59.9374913   7.7171673
  62.2826993  60.6364913   7.9251673  62.1756993  59.2904913   8.1681673
  61.9286993  59.9454913   7.8141673  65.0086993  70.0424913   7.8161673
  64.4056993  69.7464913   7.2591673  65.5536993  70.4944913   7.3071673
  64.9996993  70.0654913   7.6581673  65.0216993  66.8934913   7.2161673
  64.2246993  67.1174913   7.4901673  65.2796993  66.2994913   7.8011673
  64.9416993  66.8384913   7.3431673  64.0126993  64.6974913  11.6621673
  63.8576993  65.3074913  12.2661673  64.5466993  64.1394913  12.0681673
  64.0686993  64.7054913  11.8111673  52.7036993  55.4164913   1.8631673
  52.8326993  54.7084913   1.3711673  52.3366993  55.0984913   2.5881673
  52.6686993  55.2644913   1.8981673  62.3966993  63.0974913   2.3201673
  62.4556993  63.7474913   2.8991673  62.2076993  62.4014913   2.8111673
  62.3776993  63.0904913   2.4781673  61.6196993  65.1444913   6.7511673
  60.7726993  64.9504913   6.8321673  61.9436993  64.9794913   7.5441673
  61.5416993  65.0914913   6.8801673  55.4676993  64.8374913   9.0671673
  56.1896993  65.3254913   9.0301673  55.1976993  64.8074913   8.2381673
  55.5346993  64.9054913   8.9391673  58.6976993  60.0084913   5.8021673
  59.5436993  59.8184913   5.9001673  58.3276993  59.2314913   5.6641673
  58.7676993  59.8654913   5.7961673  53.5186993  61.3464913   2.4571673
  54.0076993  61.0544913   3.1181673  53.6476993  60.7534913   1.8301673
  53.6096993  61.2154913   2.4621673  54.8626993  65.8894913  13.3451673
  54.4416993  65.3714913  12.7841673  54.5106993  66.6754913  13.2021673
  54.7486993  65.9294913  13.2411673  52.9786993  57.2114913   7.1891673
  53.0226993  57.5554913   6.3881673  53.7336993  57.4484913   7.5561673
  53.0966993  57.2974913   7.1251673  59.6016993  67.7004913   9.9631673
  59.3036993  68.2924913  10.5301673  59.6566993  68.1424913   9.2141673
  59.5656993  67.8534913   9.9361673  57.5806993  66.6504913  13.3611673
  56.7746993  66.3604913  13.5281673  57.4916993  67.5184913  13.3671673
  57.4486993  66.7354913  13.3861673  62.1176993  64.1234913   9.4541673
  62.5936993  64.4974913  10.0821673  61.2946993  64.2574913   9.7131673
  62.0666993  64.1984913   9.5851673  58.8276993  59.7264913  12.1951673
  58.9886993  58.9824913  12.6221673  58.7826993  59.4774913  11.3601673
  58.8446993  59.5794913  12.1351673  60.5796993  55.5344913  12.0751673
  61.2846993  55.8544913  11.6731673  60.8206993  54.7274913  12.3021673
  60.7186993  55.4624913  12.0491673  59.5646993  69.7444913   8.0711673
  58.9406993  70.3264913   7.8891673  59.8126993  69.4584913   7.2851673
  59.5086993  69.7884913   7.9281673  63.8736993  66.3784913  15.0601673
  64.6306993  66.6644913  14.7341673  63.3266993  66.4304913  14.3821673
  63.9046993  66.4284913  14.9111673  57.0886993  60.5874913   8.1361673
  57.5286993  60.4844913   7.3901673  57.6336993  60.2744913   8.7411673
  57.2336993  60.5264913   8.1151673  64.7926993  61.2264913  10.0261673
  65.0946993  61.6464913  10.7291673  64.8286993  60.3864913  10.2581673
  64.8426993  61.1644913  10.1641673  60.6356993  55.5724913   8.1831673
  59.8096993  55.4234913   8.4201673  60.5956993  55.6074913   7.3121673
  60.5076993  55.5554913   8.0891673  62.2766993  66.6124913  12.9711673
  61.4816993  66.5484913  13.3221673  62.3476993  67.4594913  12.7761673
  62.1696993  66.7274913  12.9941673  53.2006993  55.9704913  14.2181673
  53.0606993  56.7654913  13.8871673  52.4146993  55.7274913  14.5071673
  53.0636993  56.0524913  14.2121673  65.0216993  65.8674913   4.4871673
  65.0976993  66.2084913   5.2861673  65.1906993  65.0204913   4.6081673
  65.0576993  65.7924913   4.6231673  62.5436993  65.1414913   4.0521673
  62.2456993  64.8264913   4.8091673  63.2386993  65.6144913   4.2871673
  62.6026993  65.1644913   4.1991673  62.7656993  69.2594913  12.0791673
  63.4526993  69.1454913  12.6041673  62.8996993  70.0504913  11.7351673
  62.8866993  69.3594913  12.1061673  63.3886993  63.7234913  15.6531673
  63.7116993  64.4094913  15.2211673  62.6846993  64.0464913  16.0551673
  63.3316993  63.8724913  15.6481673  63.1736993  67.1874913   9.5121673
  62.4796993  67.5894913   9.8551673  63.8506993  67.6204913   9.8511673
  63.1706993  67.3104913   9.6131673  56.2416993  60.7254913  11.8591673
  56.6166993  61.3444913  11.3721673  56.9156993  60.2514913  12.1441673
  56.3966993  60.7474913  11.8291673  54.0166993  59.1734913  11.1341673
  54.0936993  59.0044913  10.2811673  54.7626993  59.5794913  11.3311673
  54.1376993  59.2084913  11.0371673  56.5706993  56.5834913  13.5451673
  56.4896993  55.7394913  13.7511673  56.2566993  56.6274913  12.7321673
  56.5126993  56.4654913  13.4551673  63.4956993  68.7784913   2.6811673
  63.2906993  69.6114913   2.5221673  62.7206993  68.3964913   2.8031673
  63.3506993  68.8454913   2.6761673  53.4136993  64.3994913  11.3581673
  53.7336993  64.6184913  10.5771673  53.3136993  63.5344913  11.3031673
  53.4456993  64.3044913  11.2351673  64.5566993  56.7594913  14.7121673
  64.6486993  57.4714913  15.2061673  63.9196993  56.3144913  15.1091673
  64.4756993  56.7984913  14.8441673  63.5506993  56.9494913   5.5661673
  62.8506993  57.4674913   5.5101673  63.5886993  56.5694913   4.7821673
  63.4526993  56.9704913   5.4421673  58.1766993  63.6914913  12.7431673
  57.7806993  64.4654913  12.8181673  57.7706993  63.3184913  12.0671673
  58.0586993  63.7504913  12.6541673  58.6056993  56.6684913  10.1931673
  57.7416993  56.7524913  10.2731673  58.8256993  56.1544913  10.8621673
  58.5106993  56.6054913  10.3041673  62.7086993  57.4164913   8.5671673
  61.9716993  56.9624913   8.6801673  63.2796993  57.0144913   9.0901673
  62.6836993  57.2894913   8.6611673  65.4406993  68.2644913  10.3551673
  65.6466993  68.5654913  11.1471673  65.3796993  68.9864913   9.8701673
  65.4616993  68.4154913  10.4001673  60.2116993  61.7454913  13.7711673
  59.8896993  61.1694913  13.2011673  59.8526993  62.5004913  13.5251673
  60.1116993  61.7714913  13.6511673  55.8256993  56.7514913  10.8411673
  55.4826993  55.9844913  10.6071673  55.1306993  57.2754913  10.9051673
  55.6726993  56.7154913  10.8161673  64.8716993  55.6074913   7.8181673
  65.5416993  56.1514913   7.9451673  64.3686993  56.0314913   7.2451673
  64.8966993  55.7504913   7.7521673  64.2306993  61.4154913   5.3111673
  64.7816993  60.8084913   5.6111673  63.8056993  61.6784913   6.0261673
  64.2496993  61.3644913   5.4601673  54.4786993  60.0654913   4.7971673
  54.1106993  60.3674913   5.5281673  55.0126993  59.4364913   5.0811673
  54.5026993  60.0174913   4.9471673  54.1666993  68.4734913  12.3081673
  53.5926993  68.8894913  12.8171673  54.8996993  68.9384913  12.4031673
  54.1906993  68.6034913  12.3971673  59.2586993  57.1124913  13.9271673
  59.4926993  56.5364913  13.3141673  58.4166993  56.9314913  14.0681673
  59.1686993  57.0004913  13.8571673  63.6496993  36.8373833  79.3131313
  63.4046993  37.3253833  78.6331313  64.5126993  36.7643833  79.2131313
  63.7406993  36.8983833  79.1981313  63.4586993  43.7533833  83.9841313
  62.9346993  44.3493833  84.3471313  63.8556993  43.3853833  84.6681313
  63.4396993  43.7873833  84.1391313  53.3276993  47.8933833  79.4401313
  52.8866993  48.0113833  80.1831313  53.0446993  47.1183833  79.1551313
  53.2206993  47.7963833  79.5081313  53.0706993  41.6853833  75.9471313
  52.2926993  41.8473833  75.5871313  53.1096993  40.8143833  75.9691313
  52.9616993  41.5803833  75.8971313  56.2096993  46.9483833  74.6191313
  55.8176993  46.5773833  73.9331313  56.1296993  46.3503833  75.2481313
  56.1396993  46.8053833  74.6101313  55.8366993  48.5893833  78.5191313
  56.4446993  48.4193833  79.1221313  55.0856993  48.4493833  78.9401313
  55.8156993  48.5433833  78.6701313  60.1186993  37.9243833  78.4681313
  60.0486993  38.6013833  77.9221313  60.8596993  37.5363833  78.2191313
  60.2176993  37.9673833  78.3501313  54.7276993  51.6803833  74.5961313
  55.1946993  51.7643833  73.8641313  55.1826993  51.1023833  75.0651313
  54.8636993  51.6073833  74.5571313  53.2676993  50.6283833  85.6951313
  53.3966993  50.3483833  86.5111313  52.6576993  50.0873833  85.3861313
  53.1966993  50.5073833  85.7701313  54.7136993  45.1493833  79.8971313
  54.2516993  44.7573833  79.2701313  55.4136993  44.6363833  79.9891313
  54.7486993  45.0163833  79.8181313  59.2216993  40.7593833  85.2441313
  59.8996993  40.7773833  84.6951313  59.1766993  39.9233833  85.4891313
  59.3146993  40.6383833  85.1991313  59.8236993  51.3453833  88.0251313
  59.9616993  52.1053833  87.6181313  60.6146993  50.9803833  88.0521313
  59.9606993  51.4043833  87.9691313  56.7146993  43.2493833  79.9201313
  57.5316993  43.0623833  80.1631313  56.2376993  42.6353833  80.3161313
  56.7646993  43.1313833  80.0151313  60.9186993  49.2303833  82.5301313
  61.2666993  48.4313833  82.5601313  61.5836993  49.7343833  82.2751313
  61.0686993  49.1863833  82.4971313  60.9756993  48.6793833  78.7411313
  61.3066993  48.0353833  79.2271313  61.2156993  48.4683833  77.9301313
  61.0596993  48.5533833  78.6931313  57.3116993  38.3433833  79.1861313
  57.0156993  38.8443833  78.5361313  58.1786993  38.4213833  79.1291313
  57.3956993  38.4293833  79.0821313  60.2906993  37.4853833  81.4091313
  60.3636993  38.3453833  81.5381313  60.2526993  37.4103833  80.5411313
  60.2956993  37.6013833  81.3001313  64.9636993  40.4113833  73.7081313
  64.5136993  41.0923833  74.0151313  65.0776993  39.9073833  74.4111313
  64.9146993  40.4373833  73.8571313  53.1696993  42.9103833  82.9101313
  52.9136993  43.7413833  82.8351313  52.5056993  42.5273833  83.3271313
  53.0336993  42.9763833  82.9611313  53.0796993  52.6203833  80.8101313
  52.4876993  53.1783833  80.4971313  53.5056993  52.3513833  80.0981313
  53.0556993  52.6623833  80.6591313  58.9196993  50.4643833  78.2901313
  58.3406993  50.1893833  78.8821313  59.5436993  49.8553833  78.3151313
  58.9266993  50.3343833  78.3811313  63.2306993  53.1443833  77.8021313
  63.4446993  53.6713833  78.4641313  63.9976993  52.9703833  77.4231313
  63.3756993  53.1963833  77.8441313  56.1986993  37.7273833  83.4011313
  55.6776993  37.0993833  83.0931313  56.7896993  37.2903833  83.8721313
  56.2096993  37.5693833  83.4251313  54.6246993  51.2903833  78.7411313
  55.2806993  50.7153833  78.7561313  55.0136993  52.0393833  78.5201313
  54.7796993  51.3153833  78.7111313  55.4426993  49.7773833  82.2411313
  55.8656993  49.4213833  81.5671313  55.7666993  49.3553833  82.9331313
  55.5526993  49.6623833  82.2441313  58.6736993  52.6293833  81.5371313
  59.5176993  52.7333833  81.3421313  58.3766993  53.4473833  81.6051313
  58.7546993  52.7653833  81.5181313  62.4806993  42.0263833  79.6241313
  62.7676993  41.7943833  78.8341313  63.2126993  42.1053833  80.0931313
  62.6306993  42.0033833  79.5771313  63.2026993  42.3653833  74.7451313
  63.4836993  43.1533833  74.9941313  62.4266993  42.5303833  74.3821313
  63.1296993  42.5063833  74.7281313  57.6716993  53.8483833  87.2771313
  57.9636993  53.7813833  88.0971313  57.0456993  53.2433833  87.2321313
  57.6226993  53.7493833  87.3921313  62.0616993  50.5363833  74.5611313
  61.8806993  51.0813833  75.2181313  62.8276993  50.8263833  74.2601313
  62.1476993  50.6603833  74.6141313  53.5226993  39.6003833  78.1841313
  53.4086993  38.7363833  78.2151313  53.0476993  39.8943833  78.8541313
  53.4356993  39.5163833  78.2871313  55.6646993  52.0103833  86.3991313
  54.9666993  51.5023833  86.5251313  55.9246993  51.8053833  85.5911313
  55.5996993  51.9053833  86.2981313  62.8266993  40.8083833  76.9291313
  62.3186993  40.1463833  76.6751313  62.8786993  41.3123833  76.2191313
  62.7596993  40.7853833  76.7871313  63.3756993  53.5033833  87.3091313
  64.1436993  53.4233833  86.9031313  62.7926993  53.3823833  86.6711313
  63.4026993  53.4733833  87.1551313  62.8266993  37.7493833  76.8201313
  62.3716993  37.3473833  76.1941313  63.5996993  37.9043833  76.4451313
  62.8736993  37.7133833  76.6721313  61.4246993  40.1163833  81.3421313
  61.4986993  40.6843833  80.6841313  61.5456993  40.6083833  82.0521313
  61.4526993  40.2733833  81.3501313  56.0326993  35.9393833  79.6901313
  56.5686993  36.6273833  79.6801313  56.0356993  35.6653833  78.8621313
  56.1116993  36.0003833  79.5661313  58.9886993  46.3723833  83.7151313
  59.1606993  46.1623833  84.5441313  58.3336993  45.8383833  83.4991313
  58.9176993  46.2623833  83.8061313  65.2166993  40.2863833  87.2301313
  65.1216993  40.6053833  88.0361313  64.6236993  39.6473833  87.1921313
  65.1146993  40.2383833  87.3441313  59.7386993  46.3103833  86.3051313
  59.7916993  47.1573833  86.5071313  59.4536993  45.9403833  87.0421313
  59.7046993  46.3803833  86.4431313  56.4806993  39.7493833  81.3441313
  56.7526993  39.3193833  80.6361313  56.3046993  39.1133833  81.9151313
  56.4946993  39.5923833  81.3241313  56.3046993  47.1763833  80.8931313
  57.1556993  47.0963833  80.7201313  55.9476993  46.4943833  80.4811313
  56.3776993  47.0633833  80.8061313  55.0716993  53.9013833  82.1301313
  54.3986993  53.4033833  81.8851313  55.4746993  54.0863833  81.3791313
  55.0316993  53.8553833  81.9831313  54.6216993  40.8513833  84.4261313
  55.4646993  41.0713833  84.3831313  54.2326993  41.4243833  83.8951313
  54.6886993  40.9683833  84.3411313  58.6726993  47.1833833  79.1281313
  59.3856993  47.6783833  79.2181313  58.8946993  46.6163833  78.5021313
  58.8106993  47.1723833  79.0491313  52.8286993  48.8263833  82.4481313
  52.1616993  49.3143833  82.7241313  53.5086993  49.3713833  82.4771313
  52.8306993  48.9783833  82.4931313  52.8946993  45.5103833  77.5511313
  52.7096993  44.6713833  77.7031313  53.5536993  45.4743833  76.9811313
  52.9646993  45.3813833  77.4891313  63.1956993  50.8863833  81.4551313
  62.6726993  51.5203833  81.1621313  63.5056993  50.5223833  80.7261313
  63.1636993  50.9263833  81.3041313  53.0666993  49.6743833  77.1261313
  53.6186993  50.2433833  77.4901313  52.8346993  49.1593833  77.7911313
  53.1136993  49.6823833  77.2781313  57.2706993  48.6743833  84.2151313
  57.7376993  48.9633833  84.8931313  57.8426993  48.1963833  83.7611313
  57.4246993  48.6463833  84.2481313  52.8966993  48.1233833  74.7541313
  53.6526993  47.6913833  74.8121313  52.9116993  48.6553833  75.4451313
  53.0106993  48.1383833  74.8651313  53.8366993  46.3443833  82.7591313
  54.2676993  46.2153833  82.0121313  53.6316993  47.1923833  82.7331313
  53.8696993  46.4503833  82.6451313  60.1826993  39.9083833  76.4091313
  60.1806993  39.7913833  75.5441313  60.0016993  40.7563833  76.5011313
  60.1556993  40.0163833  76.2951313  57.9206993  49.8603833  81.0411313
  58.0466993  50.7033833  81.2281313  58.5886993  49.4613833  81.4371313
  58.0386993  49.9263833  81.1271313  56.5356993  42.7403833  76.0431313
  56.4076993  42.2923833  76.7811313  55.9536993  42.3983833  75.4911313
  56.4306993  42.6233833  76.0711313  56.7026993  44.5703833  82.6421313
  55.9216993  44.5113833  82.2591313  56.7746993  43.8183833  83.0791313
  56.5976993  44.4513833  82.6501313  57.1326993  44.3073833  86.1101313
  57.1576993  43.6323833  85.5591313  56.4866993  44.8033833  85.7981313
  57.0416993  44.2803833  85.9831313  61.2326993  53.0843833  85.5021313
  60.9556993  52.4433833  84.9791313  61.0246993  53.8103833  85.0641313
  61.1616993  53.0973833  85.3601313  63.6726993  37.9263833  87.9351313
  63.8216993  37.1013833  87.6921313  64.0516993  37.9813833  88.7191313
  63.7506993  37.8123833  88.0151313  61.8026993  41.4593833  83.7421313
  62.2826993  42.1583833  83.9501313  62.1756993  40.8123833  84.1931313
  61.9286993  41.4673833  83.8391313  63.9916993  44.6283833  76.0161313
  63.9836993  45.3503833  75.5261313  63.3526993  44.7633833  76.5931313
  63.8966993  44.7553833  76.0291313  65.0086993  51.5643833  83.8411313
  64.4056993  51.2683833  83.2841313  65.5536993  52.0163833  83.3321313
  64.9996993  51.5873833  83.6831313  65.0216993  48.4153833  83.2411313
  64.2246993  48.6393833  83.5151313  65.2796993  47.8213833  83.8261313
  64.9416993  48.3603833  83.3681313  58.9136993  53.2273833  77.6891313
  58.7666993  52.4513833  78.0601313  59.6026993  53.0803833  77.1741313
  58.9936993  53.0903833  77.6681313  58.5846993  36.9703833  75.6771313
  58.6816993  36.8633833  76.5381313  57.8766993  37.4763833  75.6121313
  58.4946993  37.0293833  75.7951313  61.2056993  52.7433833  76.0911313
  61.8276993  52.9063833  76.6811313  61.2416993  53.4343833  75.5591313
  61.3026993  52.8693833  76.1001313  55.7066993  45.2773833  76.9201313
  56.0306993  44.4983833  76.6981313  56.3526993  45.6453833  77.3751313
  55.8496993  45.2163833  76.9541313  64.0126993  46.2193833  87.6871313
  63.8576993  46.8293833  88.2911313  64.5466993  45.6613833  88.0931313
  64.0686993  46.2273833  87.8361313  52.7036993  36.9383833  77.8881313
  52.8326993  36.2303833  77.3961313  52.3366993  36.6203833  78.6131313
  52.6686993  36.7863833  77.9231313  62.3966993  44.6193833  78.3451313
  62.4556993  45.2693833  78.9241313  62.2076993  43.9233833  78.8361313
  62.3776993  44.6123833  78.5031313  56.8926993  39.1363833  74.8571313
  56.3816993  39.1893833  74.1511313  57.6766993  39.3763833  74.5611313
  56.9326993  39.1793833  74.7091313  61.6196993  46.6663833  82.7761313
  60.7726993  46.4723833  82.8571313  61.9436993  46.5013833  83.5691313
  61.5416993  46.6133833  82.9051313  58.3716993  53.3963833  73.6621313
  58.8106993  52.6993833  73.9501313  58.5786993  54.0203833  74.2351313
  58.4676993  53.3853833  73.7891313  55.4676993  46.3593833  85.0921313
  56.1896993  46.8473833  85.0551313  55.1976993  46.3293833  84.2631313
  55.5346993  46.4273833  84.9641313  58.6976993  41.5303833  81.8271313
  59.5436993  41.3403833  81.9251313  58.3276993  40.7533833  81.6891313
  58.7676993  41.3873833  81.8211313  53.5186993  42.8683833  78.4821313
  54.0076993  42.5763833  79.1431313  53.6476993  42.2753833  77.8551313
  53.6096993  42.7373833  78.4871313  58.0436993  44.3023833  73.9681313
  57.4336993  43.8973833  74.4421313  57.6576993  44.4203833  73.1951313
  57.8966993  44.2593833  73.9241313  59.4986993  42.7633833  76.6781313
  59.7706993  43.5893833  76.7451313  58.6356993  42.8383833  76.5821313
  59.4116993  42.8963833  76.6731313  52.9786993  38.7333833  83.2141313
  53.0226993  39.0773833  82.4131313  53.7336993  38.9703833  83.5811313
  53.0966993  38.8193833  83.1501313  64.9196993  48.0723833  74.6841313
  65.6036993  47.5583833  74.5151313  64.5026993  48.1183833  73.9191313
  64.9586993  48.0033833  74.5461313  59.6016993  49.2223833  85.9881313
  59.3036993  49.8143833  86.5551313  59.6566993  49.6643833  85.2391313
  59.5656993  49.3753833  85.9611313  62.1176993  45.6453833  85.4791313
  62.5936993  46.0193833  86.1071313  61.2946993  45.7793833  85.7381313
  62.0666993  45.7203833  85.6101313  58.8276993  41.2483833  88.2201313
  58.9886993  40.5043833  88.6471313  58.7826993  40.9993833  87.3851313
  58.8446993  41.1013833  88.1601313  61.3816993  53.0383833  80.7071313
  61.9276993  53.7173833  80.7611313  61.0316993  53.1203833  79.9121313
  61.4106993  53.1513833  80.5971313  60.5796993  37.0563833  88.1001313
  61.2846993  37.3763833  87.6981313  60.8206993  36.2493833  88.3271313
  60.7186993  36.9843833  88.0741313  59.5646993  51.2663833  84.0961313
  58.9406993  51.8483833  83.9141313  59.8126993  50.9803833  83.3101313
  59.5086993  51.3103833  83.9531313  61.1586993  46.0423833  74.0111313
  60.3536993  45.8653833  73.7261313  61.1256993  46.8933833  74.2031313
  61.0346993  46.1413833  73.9981313  57.0886993  42.1093833  84.1611313
  57.5286993  42.0063833  83.4151313  57.6336993  41.7963833  84.7661313
  57.2336993  42.0483833  84.1401313  64.7926993  42.7483833  86.0511313
  65.0946993  43.1683833  86.7541313  64.8286993  41.9083833  86.2831313
  64.8426993  42.6863833  86.1891313  60.6356993  37.0943833  84.2081313
  59.8096993  36.9453833  84.4451313  60.5956993  37.1293833  83.3371313
  60.5076993  37.0773833  84.1141313  58.1066993  54.3413833  84.3131313
  58.1176993  54.4003833  85.1831313  57.6816993  53.5943833  84.1631313
  58.0456993  54.2393833  84.4191313  56.2646993  40.2363833  77.4681313
  56.3906993  39.9073833  76.6701313  55.4526993  39.9873833  77.6671313
  56.1636993  40.1513833  77.3801313  65.0216993  47.3893833  80.5121313
  65.0976993  47.7303833  81.3111313  65.1906993  46.5423833  80.6331313
  65.0576993  47.3143833  80.6481313  62.5436993  46.6633833  80.0771313
  62.2456993  46.3483833  80.8341313  63.2386993  47.1363833  80.3121313
  62.6026993  46.6863833  80.2241313  62.7656993  50.7813833  88.1041313
  63.4526993  50.6673833  88.6291313  62.8996993  51.5723833  87.7601313
  62.8866993  50.8813833  88.1311313  63.1736993  48.7093833  85.5371313
  62.4796993  49.1113833  85.8801313  63.8506993  49.1423833  85.8761313
  63.1706993  48.8323833  85.6381313  56.2416993  42.2473833  87.8841313
  56.6166993  42.8663833  87.3971313  56.9156993  41.7733833  88.1691313
  56.3966993  42.2693833  87.8541313  54.0166993  40.6953833  87.1591313
  54.0936993  40.5263833  86.3061313  54.7626993  41.1013833  87.3561313
  54.1376993  40.7303833  87.0621313  63.4956993  50.3003833  78.7061313
  63.2906993  51.1333833  78.5471313  62.7206993  49.9183833  78.8281313
  63.3506993  50.3673833  78.7011313  53.4136993  45.9213833  87.3831313
  53.7336993  46.1403833  86.6021313  53.3136993  45.0563833  87.3281313
  53.4456993  45.8263833  87.2601313  54.8696993  41.8573833  74.0011313
  54.1976993  41.8713833  74.5571313  54.9646993  41.0093833  73.8171313
  54.7846993  41.7343833  74.0561313  63.5506993  38.4713833  81.5911313
  62.8506993  38.9893833  81.5351313  63.5886993  38.0913833  80.8071313
  63.4526993  38.4923833  81.4671313  58.8576993  50.5623833  75.1151313
  59.2986993  50.6423833  75.8631313  58.0526993  50.3463833  75.3731313
  58.8036993  50.5423833  75.2641313  58.1766993  45.2133833  88.7681313
  57.7806993  45.9873833  88.8431313  57.7706993  44.8403833  88.0921313
  58.0586993  45.2723833  88.6791313  56.1866993  49.6323833  75.7161313
  55.9426993  49.3253833  76.4961313  56.1536993  48.9293833  75.2001313
  56.1456993  49.4833833  75.7551313  59.0056993  47.8773833  74.4591313
  58.1876993  47.6093833  74.5991313  58.9776993  48.7293833  74.6441313
  58.8806993  47.9643833  74.5071313  58.6056993  38.1903833  86.2181313
  57.7416993  38.2743833  86.2981313  58.8256993  37.6763833  86.8871313
  58.5106993  38.1273833  86.3291313  62.7086993  38.9383833  84.5921313
  61.9716993  38.4843833  84.7051313  63.2796993  38.5363833  85.1151313
  62.6836993  38.8113833  84.6861313  65.4406993  49.7863833  86.3801313
  65.6466993  50.0873833  87.1721313  65.3796993  50.5083833  85.8951313
  65.4616993  49.9373833  86.4251313  61.0076993  36.5193833  74.4231313
  61.0856993  36.7663833  73.5901313  60.2646993  36.8963833  74.6811313
  60.9096993  36.6113833  74.3381313  55.8256993  38.2733833  86.8661313
  55.4826993  37.5063833  86.6321313  55.1306993  38.7973833  86.9301313
  55.6726993  38.2373833  86.8411313  64.8716993  37.1293833  83.8431313
  65.5416993  37.6733833  83.9701313  64.3686993  37.5533833  83.2701313
  64.8966993  37.2723833  83.7771313  64.2306993  42.9373833  81.3361313
  64.7816993  42.3303833  81.6361313  63.8056993  43.2003833  82.0511313
  64.2496993  42.8863833  81.4851313  54.4786993  41.5873833  80.8221313
  54.1106993  41.8893833  81.5531313  55.0126993  40.9583833  81.1061313
  54.5026993  41.5393833  80.9721313  54.1666993  49.9953833  88.3331313
  53.5926993  50.4113833  88.8421313  54.8996993  50.4603833  88.4281313
  54.1906993  50.1253833  88.4221313  55.9526993  53.2623833  77.1081313
  55.8076993  53.4183833  76.2621313  56.8186993  53.3413833  77.1861313
  56.0596993  53.2973833  76.9951313  60.1196993  45.6593833  76.8361313
  60.2196993  45.7983833  75.9811313  60.9376993  45.5993833  77.1321313
  60.2546993  45.6703833  76.7531313  65.3546993  49.9883833  76.6381313
  65.1036993  49.8603833  77.4641313  65.0376993  49.2933833  76.2171313
  65.2706993  49.8673833  76.6981313  56.6396993  52.0773833  83.5851313
  56.5606993  51.2673833  83.2691313  56.1956993  52.5643833  83.0131313
  56.5626993  52.0293833  83.4541313  62.2406993  48.1963833  76.0681313
  62.9576993  47.8493833  75.7121313  62.2066993  48.9963833  75.7201313
  62.3416993  48.2633833  75.9641313  54.2116993  54.3213833  87.1661313
  54.7046993  54.2653833  87.8841313  54.3996993  53.5883833  86.7311313
  54.3126993  54.2043833  87.2081313  63.6496993  36.8373833  60.3068903
  63.4046993  37.3253833  59.6268903  64.5126993  36.7643833  60.2068903
  63.7406993  36.8983833  60.1918903  63.4586993  43.7533833  64.9778903
  62.9346993  44.3493833  65.3408903  63.8556993  43.3853833  65.6618903
  63.4396993  43.7873833  65.1328903  53.3276993  47.8933833  60.4338903
  52.8866993  48.0113833  61.1768903  53.0446993  47.1183833  60.1488903
  53.2206993  47.7963833  60.5018903  53.0706993  41.6853833  56.9408903
  52.2926993  41.8473833  56.5808903  53.1096993  40.8143833  56.9628903
  52.9616993  41.5803833  56.8908903  56.2096993  46.9483833  55.6128903
  55.8176993  46.5773833  54.9268903  56.1296993  46.3503833  56.2418903
  56.1396993  46.8053833  55.6038903  55.8366993  48.5893833  59.5128903
  56.4446993  48.4193833  60.1158903  55.0856993  48.4493833  59.9338903
  55.8156993  48.5433833  59.6638903  60.1186993  37.9243833  59.4618903
  60.0486993  38.6013833  58.9158903  60.8596993  37.5363833  59.2128903
  60.2176993  37.9673833  59.3438903  54.7276993  51.6803833  55.5898903
  55.1946993  51.7643833  54.8578903  55.1826993  51.1023833  56.0588903
  54.8636993  51.6073833  55.5508903  53.2676993  50.6283833  66.6888903
  53.3966993  50.3483833  67.5048903  52.6576993  50.0873833  66.3798903
  53.1966993  50.5073833  66.7638903  59.8416993  48.1533833  71.7558903
  59.6056993  48.1503833  72.5958903  59.0936993  48.0053833  71.3318903
  59.6956993  48.1303833  71.8168903  54.7136993  45.1493833  60.8908903
  54.2516993  44.7573833  60.2638903  55.4136993  44.6363833  60.9828903
  54.7486993  45.0163833  60.8118903  59.2216993  40.7593833  66.2378903
  59.8996993  40.7773833  65.6888903  59.1766993  39.9233833  66.4828903
  59.3146993  40.6383833  66.1928903  59.8236993  51.3453833  69.0188903
  59.9616993  52.1053833  68.6118903  60.6146993  50.9803833  69.0458903
  59.9606993  51.4043833  68.9628903  56.7146993  43.2493833  60.9138903
  57.5316993  43.0623833  61.1568903  56.2376993  42.6353833  61.3098903
  56.7646993  43.1313833  61.0088903  60.9186993  49.2303833  63.5238903
  61.2666993  48.4313833  63.5538903  61.5836993  49.7343833  63.2688903
  61.0686993  49.1863833  63.4908903  60.9756993  48.6793833  59.7348903
  61.3066993  48.0353833  60.2208903  61.2156993  48.4683833  58.9238903
  61.0596993  48.5533833  59.6868903  62.9436993  42.8103833  71.0738903
  62.0956993  42.7113833  70.8958903  62.9726993  43.5553833  71.5278903
  62.8226993  42.9063833  71.1148903  57.3116993  38.3433833  60.1798903
  57.0156993  38.8443833  59.5298903  58.1786993  38.4213833  60.1228903
  57.3956993  38.4293833  60.0758903  60.2906993  37.4853833  62.4028903
  60.3636993  38.3453833  62.5318903  60.2526993  37.4103833  61.5348903
  60.2956993  37.6013833  62.2938903  64.9636993  40.4113833  54.7018903
  64.5136993  41.0923833  55.0088903  65.0776993  39.9073833  55.4048903
  64.9146993  40.4373833  54.8508903  53.1696993  42.9103833  63.9038903
  52.9136993  43.7413833  63.8288903  52.5056993  42.5273833  64.3208903
  53.0336993  42.9763833  63.9548903  53.0796993  52.6203833  61.8038903
  52.4876993  53.1783833  61.4908903  53.5056993  52.3513833  61.0918903
  53.0556993  52.6623833  61.6528903  58.9196993  50.4643833  59.2838903
  58.3406993  50.1893833  59.8758903  59.5436993  49.8553833  59.3088903
  58.9266993  50.3343833  59.3748903  63.2306993  53.1443833  58.7958903
  63.4446993  53.6713833  59.4578903  63.9976993  52.9703833  58.4168903
  63.3756993  53.1963833  58.8378903  56.1986993  37.7273833  64.3948903
  55.6776993  37.0993833  64.0868903  56.7896993  37.2903833  64.8658903
  56.2096993  37.5693833  64.4188903  59.5046993  39.8603833  73.6928903
  59.6216993  39.4063833  72.9568903  59.7926993  40.6583833  73.4898903
  59.5646993  39.9113833  73.5538903  54.6246993  51.2903833  59.7348903
  55.2806993  50.7153833  59.7498903  55.0136993  52.0393833  59.5138903
  54.7796993  51.3153833  59.7048903  55.2376993  39.4573833  72.6768903
  54.4596993  39.0673833  72.6048903  55.7286993  39.0453833  72.0858903
  55.1946993  39.3383833  72.5788903  55.4426993  49.7773833  63.2348903
  55.8656993  49.4213833  62.5608903  55.7666993  49.3553833  63.9268903
  55.5526993  49.6623833  63.2378903  58.6736993  52.6293833  62.5308903
  59.5176993  52.7333833  62.3358903  58.3766993  53.4473833  62.5988903
  58.7546993  52.7653833  62.5118903  61.8866993  37.1003833  71.8448903
  62.0646993  36.2913833  71.5698903  61.7436993  37.5413833  71.1058903
  61.8916993  37.0463833  71.6948903  62.4806993  42.0263833  60.6178903
  62.7676993  41.7943833  59.8278903  63.2126993  42.1053833  61.0868903
  62.6306993  42.0033833  60.5708903  63.2026993  42.3653833  55.7388903
  63.4836993  43.1533833  55.9878903  62.4266993  42.5303833  55.3758903
  63.1296993  42.5063833  55.7218903  57.6716993  53.8483833  68.2708903
  57.9636993  53.7813833  69.0908903  57.0456993  53.2433833  68.2258903
  57.6226993  53.7493833  68.3858903  52.5856993  40.0053833  70.2628903
  52.5816993  40.5923833  70.9088903  53.1796993  40.3173833  69.7058903
  52.6726993  40.1383833  70.2758903  62.0616993  50.5363833  55.5548903
  61.8806993  51.0813833  56.2118903  62.8276993  50.8263833  55.2538903
  62.1476993  50.6603833  55.6078903  53.5226993  39.6003833  59.1778903
  53.4086993  38.7363833  59.2088903  53.0476993  39.8943833  59.8478903
  53.4356993  39.5163833  59.2808903  55.6646993  52.0103833  67.3928903
  54.9666993  51.5023833  67.5188903  55.9246993  51.8053833  66.5848903
  55.5996993  51.9053833  67.2918903  62.8266993  40.8083833  57.9228903
  62.3186993  40.1463833  57.6688903  62.8786993  41.3123833  57.2128903
  62.7596993  40.7853833  57.7808903  63.3756993  53.5033833  68.3028903
  64.1436993  53.4233833  67.8968903  62.7926993  53.3823833  67.6648903
  63.4026993  53.4733833  68.1488903  62.8266993  37.7493833  57.8138903
  62.3716993  37.3473833  57.1878903  63.5996993  37.9043833  57.4388903
  62.8736993  37.7133833  57.6658903  61.4246993  40.1163833  62.3358903
  61.4986993  40.6843833  61.6778903  61.5456993  40.6083833  63.0458903
  61.4526993  40.2733833  62.3438903  57.0256993  50.8613833  69.9598903
  57.8666993  50.9243833  69.7378903  56.9886993  51.2583833  70.7358903
  57.1446993  50.9293833  70.0418903  56.0326993  35.9393833  60.6838903
  56.5686993  36.6273833  60.6738903  56.0356993  35.6653833  59.8558903
  56.1116993  36.0003833  60.5598903  58.9886993  46.3723833  64.7088903
  59.1606993  46.1623833  65.5378903  58.3336993  45.8383833  64.4928903
  58.9176993  46.2623833  64.7998903  65.2166993  40.2863833  68.2238903
  65.1216993  40.6053833  69.0298903  64.6236993  39.6473833  68.1858903
  65.1146993  40.2383833  68.3378903  59.7386993  46.3103833  67.2988903
  59.7916993  47.1573833  67.5008903  59.4536993  45.9403833  68.0358903
  59.7046993  46.3803833  67.4368903  52.5596993  50.6813833  73.5098903
  53.3156993  51.0303833  73.7678903  52.7366993  49.8283833  73.4528903
  52.6976993  50.6063833  73.5398903  56.4806993  39.7493833  62.3378903
  56.7526993  39.3193833  61.6298903  56.3046993  39.1133833  62.9088903
  56.4946993  39.5923833  62.3178903  56.3046993  47.1763833  61.8868903
  57.1556993  47.0963833  61.7138903  55.9476993  46.4943833  61.4748903
  56.3776993  47.0633833  61.7998903  55.0716993  53.9013833  63.1238903
  54.3986993  53.4033833  62.8788903  55.4746993  54.0863833  62.3728903
  55.0316993  53.8553833  62.9768903  54.6216993  40.8513833  65.4198903
  55.4646993  41.0713833  65.3768903  54.2326993  41.4243833  64.8888903
  54.6886993  40.9683833  65.3348903  58.6726993  47.1833833  60.1218903
  59.3856993  47.6783833  60.2118903  58.8946993  46.6163833  59.4958903
  58.8106993  47.1723833  60.0428903  52.8286993  48.8263833  63.4418903
  52.1616993  49.3143833  63.7178903  53.5086993  49.3713833  63.4708903
  52.8306993  48.9783833  63.4868903  60.4756993  42.5363833  73.5378903
  59.9916993  43.1133833  73.9798903  60.4476993  42.8313833  72.7168903
  60.3996993  42.6653833  73.4818903  52.8946993  45.5103833  58.5448903
  52.7096993  44.6713833  58.6968903  53.5536993  45.4743833  57.9748903
  52.9646993  45.3813833  58.4828903  63.1956993  50.8863833  62.4488903
  62.6726993  51.5203833  62.1558903  63.5056993  50.5223833  61.7198903
  63.1636993  50.9263833  62.2978903  53.0666993  49.6743833  58.1198903
  53.6186993  50.2433833  58.4838903  52.8346993  49.1593833  58.7848903
  53.1136993  49.6823833  58.2718903  57.2706993  48.6743833  65.2088903
  57.7376993  48.9633833  65.8868903  57.8426993  48.1963833  64.7548903
  57.4246993  48.6463833  65.2418903  52.8966993  48.1233833  55.7478903
  53.6526993  47.6913833  55.8058903  52.9116993  48.6553833  56.4388903
  53.0106993  48.1383833  55.8588903  53.8366993  46.3443833  63.7528903
  54.2676993  46.2153833  63.0058903  53.6316993  47.1923833  63.7268903
  53.8696993  46.4503833  63.6388903  60.1826993  39.9083833  57.4028903
  60.1806993  39.7913833  56.5378903  60.0016993  40.7563833  57.4948903
  60.1556993  40.0163833  57.2888903  57.9206993  49.8603833  62.0348903
  58.0466993  50.7033833  62.2218903  58.5886993  49.4613833  62.4308903
  58.0386993  49.9263833  62.1208903  56.0506993  43.3433833  71.8968903
  55.5146993  42.8373833  72.3648903  56.0706993  42.9533833  71.1168903
  55.9736993  43.2103833  71.8508903  56.5356993  42.7403833  57.0368903
  56.4076993  42.2923833  57.7748903  55.9536993  42.3983833  56.4848903
  56.4306993  42.6233833  57.0648903  56.7026993  44.5703833  63.6358903
  55.9216993  44.5113833  63.2528903  56.7746993  43.8183833  64.0728903
  56.5976993  44.4513833  63.6438903  57.1326993  44.3073833  67.1038903
  57.1576993  43.6323833  66.5528903  56.4866993  44.8033833  66.7918903
  57.0416993  44.2803833  66.9768903  61.2326993  53.0843833  66.4958903
  60.9556993  52.4433833  65.9728903  61.0246993  53.8103833  66.0578903
  61.1616993  53.0973833  66.3538903  63.6726993  37.9263833  68.9288903
  63.8216993  37.1013833  68.6858903  64.0516993  37.9813833  69.7128903
  63.7506993  37.8123833  69.0088903  54.9316993  45.6623833  72.6628903
  54.8946993  46.1633833  71.9488903  55.2626993  44.9103833  72.3678903
  54.9746993  45.6243833  72.5138903  60.8306993  50.7123833  72.0978903
  61.1846993  50.5343833  72.8748903  60.3946993  49.9833833  71.8988903
  60.8186993  50.5783833  72.1838903  61.8026993  41.4593833  64.7358903
  62.2826993  42.1583833  64.9438903  62.1756993  40.8123833  65.1868903
  61.9286993  41.4673833  64.8328903  63.9916993  44.6283833  57.0098903
  63.9836993  45.3503833  56.5198903  63.3526993  44.7633833  57.5868903
  63.8966993  44.7553833  57.0228903  65.0086993  51.5643833  64.8348903
  64.4056993  51.2683833  64.2778903  65.5536993  52.0163833  64.3258903
  64.9996993  51.5873833  64.6768903  65.0216993  48.4153833  64.2348903
  64.2246993  48.6393833  64.5088903  65.2796993  47.8213833  64.8198903
  64.9416993  48.3603833  64.3618903  58.9136993  53.2273833  58.6828903
  58.7666993  52.4513833  59.0538903  59.6026993  53.0803833  58.1678903
  58.9936993  53.0903833  58.6618903  58.5846993  36.9703833  56.6708903
  58.6816993  36.8633833  57.5318903  57.8766993  37.4763833  56.6058903
  58.4946993  37.0293833  56.7888903  61.2056993  52.7433833  57.0848903
  61.8276993  52.9063833  57.6748903  61.2416993  53.4343833  56.5528903
  61.3026993  52.8693833  57.0938903  64.4726993  51.7623833  73.3578903
  64.6366993  52.0453833  74.1668903  64.7356993  52.4233833  72.8528903
  64.5356993  51.9023833  73.4028903  55.7066993  45.2773833  57.9138903
  56.0306993  44.4983833  57.6918903  56.3526993  45.6453833  58.3688903
  55.8496993  45.2163833  57.9478903  64.0126993  46.2193833  68.6808903
  63.8576993  46.8293833  69.2848903  64.5466993  45.6613833  69.0868903
  64.0686993  46.2273833  68.8298903  52.7036993  36.9383833  58.8818903
  52.8326993  36.2303833  58.3898903  52.3366993  36.6203833  59.6068903
  52.6686993  36.7863833  58.9168903  62.3966993  44.6193833  59.3388903
  62.4556993  45.2693833  59.9178903  62.2076993  43.9233833  59.8298903
  62.3776993  44.6123833  59.4968903  56.8926993  39.1363833  55.8508903
  56.3816993  39.1893833  55.1448903  57.6766993  39.3763833  55.5548903
  56.9326993  39.1793833  55.7028903  61.6196993  46.6663833  63.7698903
  60.7726993  46.4723833  63.8508903  61.9436993  46.5013833  64.5628903
  61.5416993  46.6133833  63.8988903  58.3716993  53.3963833  54.6558903
  58.8106993  52.6993833  54.9438903  58.5786993  54.0203833  55.2288903
  58.4676993  53.3853833  54.7828903  55.4676993  46.3593833  66.0858903
  56.1896993  46.8473833  66.0488903  55.1976993  46.3293833  65.2568903
  55.5346993  46.4273833  65.9578903  58.6976993  41.5303833  62.8208903
  59.5436993  41.3403833  62.9188903  58.3276993  40.7533833  62.6828903
  58.7676993  41.3873833  62.8148903  53.5186993  42.8683833  59.4758903
  54.0076993  42.5763833  60.1368903  53.6476993  42.2753833  58.8488903
  53.6096993  42.7373833  59.4808903  58.0436993  44.3023833  54.9618903
  57.4336993  43.8973833  55.4358903  57.6576993  44.4203833  54.1888903
  57.8966993  44.2593833  54.9178903  54.8626993  47.4113833  70.3638903
  54.4416993  46.8933833  69.8028903  54.5106993  48.1973833  70.2208903
  54.7486993  47.4513833  70.2598903  59.4986993  42.7633833  57.6718903
  59.7706993  43.5893833  57.7388903  58.6356993  42.8383833  57.5758903
  59.4116993  42.8963833  57.6668903  52.9786993  38.7333833  64.2078903
  53.0226993  39.0773833  63.4068903  53.7336993  38.9703833  64.5748903
  53.0966993  38.8193833  64.1438903  64.9196993  48.0723833  55.6778903
  65.6036993  47.5583833  55.5088903  64.5026993  48.1183833  54.9128903
  64.9586993  48.0033833  55.5398903  59.6016993  49.2223833  66.9818903
  59.3036993  49.8143833  67.5488903  59.6566993  49.6643833  66.2328903
  59.5656993  49.3753833  66.9548903  57.5806993  48.1723833  70.3798903
  56.7746993  47.8823833  70.5468903  57.4916993  49.0403833  70.3858903
  57.4486993  48.2573833  70.4048903  62.1176993  45.6453833  66.4728903
  62.5936993  46.0193833  67.1008903  61.2946993  45.7793833  66.7318903
  62.0666993  45.7203833  66.6038903  58.8276993  41.2483833  69.2138903
  58.9886993  40.5043833  69.6408903  58.7826993  40.9993833  68.3788903
  58.8446993  41.1013833  69.1538903  61.3816993  53.0383833  61.7008903
  61.9276993  53.7173833  61.7548903  61.0316993  53.1203833  60.9058903
  61.4106993  53.1513833  61.5908903  60.5796993  37.0563833  69.0938903
  61.2846993  37.3763833  68.6918903  60.8206993  36.2493833  69.3208903
  60.7186993  36.9843833  69.0678903  59.5646993  51.2663833  65.0898903
  58.9406993  51.8483833  64.9078903  59.8126993  50.9803833  64.3038903
  59.5086993  51.3103833  64.9468903  63.8736993  47.9003833  72.0788903
  64.6306993  48.1863833  71.7528903  63.3266993  47.9523833  71.4008903
  63.9046993  47.9503833  71.9298903  61.1586993  46.0423833  55.0048903
  60.3536993  45.8653833  54.7198903  61.1256993  46.8933833  55.1968903
  61.0346993  46.1413833  54.9918903  57.0886993  42.1093833  65.1548903
  57.5286993  42.0063833  64.4088903  57.6336993  41.7963833  65.7598903
  57.2336993  42.0483833  65.1338903  64.7926993  42.7483833  67.0448903
  65.0946993  43.1683833  67.7478903  64.8286993  41.9083833  67.2768903
  64.8426993  42.6863833  67.1828903  62.2176993  52.9153833  70.9698903
  62.6956993  52.3153833  70.5538903  61.8666993  52.4723833  71.6348903
  62.2366993  52.7613833  71.0068903  60.6356993  37.0943833  65.2018903
  59.8096993  36.9453833  65.4388903  60.5956993  37.1293833  64.3308903
  60.5076993  37.0773833  65.1078903  62.2766993  48.1343833  69.9898903
  61.4816993  48.0703833  70.3408903  62.3476993  48.9813833  69.7948903
  62.1696993  48.2493833  70.0128903  53.2006993  37.4923833  71.2368903
  53.0606993  38.2873833  70.9058903  52.4146993  37.2493833  71.5258903
  53.0636993  37.5743833  71.2308903  58.1066993  54.3413833  65.3068903
  58.1176993  54.4003833  66.1768903  57.6816993  53.5943833  65.1568903
  58.0456993  54.2393833  65.4128903  56.2646993  40.2363833  58.4618903
  56.3906993  39.9073833  57.6638903  55.4526993  39.9873833  58.6608903
  56.1636993  40.1513833  58.3738903  65.0216993  47.3893833  61.5058903
  65.0976993  47.7303833  62.3048903  65.1906993  46.5423833  61.6268903
  65.0576993  47.3143833  61.6418903  62.5436993  46.6633833  61.0708903
  62.2456993  46.3483833  61.8278903  63.2386993  47.1363833  61.3058903
  62.6026993  46.6863833  61.2178903  62.7656993  50.7813833  69.0978903
  63.4526993  50.6673833  69.6228903  62.8996993  51.5723833  68.7538903
  62.8866993  50.8813833  69.1248903  54.8706993  53.8393833  70.7488903
  54.2166993  53.2703833  70.8468903  54.4956993  54.6123833  70.8998903
  54.7186993  53.8693833  70.7858903  63.3886993  45.2453833  72.6718903
  63.7116993  45.9313833  72.2398903  62.6846993  45.5683833  73.0738903
  63.3316993  45.3943833  72.6668903  63.1736993  48.7093833  66.5308903
  62.4796993  49.1113833  66.8738903  63.8506993  49.1423833  66.8698903
  63.1706993  48.8323833  66.6318903  56.2416993  42.2473833  68.8778903
  56.6166993  42.8663833  68.3908903  56.9156993  41.7733833  69.1628903
  56.3966993  42.2693833  68.8478903  54.0166993  40.6953833  68.1528903
  54.0936993  40.5263833  67.2998903  54.7626993  41.1013833  68.3498903
  54.1376993  40.7303833  68.0558903  56.5706993  38.1053833  70.5638903
  56.4896993  37.2613833  70.7698903  56.2566993  38.1493833  69.7508903
  56.5126993  37.9873833  70.4738903  63.4956993  50.3003833  59.6998903
  63.2906993  51.1333833  59.5408903  62.7206993  49.9183833  59.8218903
  63.3506993  50.3673833  59.6948903  53.4136993  45.9213833  68.3768903
  53.7336993  46.1403833  67.5958903  53.3136993  45.0563833  68.3218903
  53.4456993  45.8263833  68.2538903  54.8696993  41.8573833  54.9948903
  54.1976993  41.8713833  55.5508903  54.9646993  41.0093833  54.8108903
  54.7846993  41.7343833  55.0498903  64.5566993  38.2813833  71.7308903
  64.6486993  38.9933833  72.2248903  63.9196993  37.8363833  72.1278903
  64.4756993  38.3203833  71.8628903  63.5506993  38.4713833  62.5848903
  62.8506993  38.9893833  62.5288903  63.5886993  38.0913833  61.8008903
  63.4526993  38.4923833  62.4608903  58.8576993  50.5623833  56.1088903
  59.2986993  50.6423833  56.8568903  58.0526993  50.3463833  56.3668903
  58.8036993  50.5423833  56.2578903  58.1766993  45.2133833  69.7618903
  57.7806993  45.9873833  69.8368903  57.7706993  44.8403833  69.0858903
  58.0586993  45.2723833  69.6728903  56.1866993  49.6323833  56.7098903
  55.9426993  49.3253833  57.4898903  56.1536993  48.9293833  56.1938903
  56.1456993  49.4833833  56.7488903  59.0056993  47.8773833  55.4528903
  58.1876993  47.6093833  55.5928903  58.9776993  48.7293833  55.6378903
  58.8806993  47.9643833  55.5008903  58.6056993  38.1903833  67.2118903
  57.7416993  38.2743833  67.2918903  58.8256993  37.6763833  67.8808903
  58.5106993  38.1273833  67.3228903  62.7086993  38.9383833  65.5858903
  61.9716993  38.4843833  65.6988903  63.2796993  38.5363833  66.1088903
  62.6836993  38.8113833  65.6798903  65.4406993  49.7863833  67.3738903
  65.6466993  50.0873833  68.1658903  65.3796993  50.5083833  66.8888903
  65.4616993  49.9373833  67.4188903  64.9746993  54.0003833  71.6198903
  64.2216993  53.9823833  71.1788903  65.1426993  54.8523833  71.7038903
  64.8886993  54.1233833  71.5668903  60.2116993  43.2673833  70.7898903
  59.8896993  42.6913833  70.2198903  59.8526993  44.0223833  70.5438903
  60.1116993  43.2933833  70.6698903  61.0076993  36.5193833  55.4168903
  61.0856993  36.7663833  54.5838903  60.2646993  36.8963833  55.6748903
  60.9096993  36.6113833  55.3318903  58.6466993  53.6233833  71.0378903
  58.6876993  53.7493833  71.9008903  59.2976993  53.0633833  70.8818903
  58.7486993  53.5593833  71.1428903  55.8256993  38.2733833  67.8598903
  55.4826993  37.5063833  67.6258903  55.1306993  38.7973833  67.9238903
  55.6726993  38.2373833  67.8348903  64.8716993  37.1293833  64.8368903
  65.5416993  37.6733833  64.9638903  64.3686993  37.5533833  64.2638903
  64.8966993  37.2723833  64.7708903  56.2396993  52.0063833  72.3978903
  56.8346993  52.4373833  72.8698903  55.8756993  52.6303833  71.9088903
  56.2736993  52.1623833  72.3948903  64.2306993  42.9373833  62.3298903
  64.7816993  42.3303833  62.6298903  63.8056993  43.2003833  63.0448903
  64.2496993  42.8863833  62.4788903  54.4786993  41.5873833  61.8158903
  54.1106993  41.8893833  62.5468903  55.0126993  40.9583833  62.0998903
  54.5026993  41.5393833  61.9658903  54.1666993  49.9953833  69.3268903
  53.5926993  50.4113833  69.8358903  54.8996993  50.4603833  69.4218903
  54.1906993  50.1253833  69.4158903  55.9526993  53.2623833  58.1018903
  55.8076993  53.4183833  57.2558903  56.8186993  53.3413833  58.1798903
  56.0596993  53.2973833  57.9888903  60.1196993  45.6593833  57.8298903
  60.2196993  45.7983833  56.9748903  60.9376993  45.5993833  58.1258903
  60.2546993  45.6703833  57.7468903  65.3546993  49.9883833  57.6318903
  65.1036993  49.8603833  58.4578903  65.0376993  49.2933833  57.2108903
  65.2706993  49.8673833  57.6918903  59.2586993  38.6343833  70.9458903
  59.4926993  38.0583833  70.3328903  58.4166993  38.4533833  71.0868903
  59.1686993  38.5223833  70.8758903  56.6396993  52.0773833  64.5788903
  56.5606993  51.2673833  64.2628903  56.1956993  52.5643833  64.0068903
  56.5626993  52.0293833  64.4478903  62.2406993  48.1963833  57.0618903
  62.9576993  47.8493833  56.7058903  62.2066993  48.9963833  56.7138903
  62.3416993  48.2633833  56.9578903  54.2116993  54.3213833  68.1598903
  54.7046993  54.2653833  68.8778903  54.3996993  53.5883833  67.7248903
  54.3126993  54.2043833  68.2018903  63.6496993  36.8373833  41.3006493
  63.4046993  37.3253833  40.6206493  64.5126993  36.7643833  41.2006493
  63.7406993  36.8983833  41.1856493  63.4586993  43.7533833  45.9716493
  62.9346993  44.3493833  46.3346493  63.8556993  43.3853833  46.6556493
  63.4396993  43.7873833  46.1266493  53.3276993  47.8933833  41.4276493
  52.8866993  48.0113833  42.1706493  53.0446993  47.1183833  41.1426493
  53.2206993  47.7963833  41.4956493  53.0706993  41.6853833  37.9346493
  52.2926993  41.8473833  37.5746493  53.1096993  40.8143833  37.9566493
  52.9616993  41.5803833  37.8846493  56.2096993  46.9483833  36.6066493
  55.8176993  46.5773833  35.9206493  56.1296993  46.3503833  37.2356493
  56.1396993  46.8053833  36.5976493  55.8366993  48.5893833  40.5066493
  56.4446993  48.4193833  41.1096493  55.0856993  48.4493833  40.9276493
  55.8156993  48.5433833  40.6576493  60.1186993  37.9243833  40.4556493
  60.0486993  38.6013833  39.9096493  60.8596993  37.5363833  40.2066493
  60.2176993  37.9673833  40.3376493  54.7276993  51.6803833  36.5836493
  55.1946993  51.7643833  35.8516493  55.1826993  51.1023833  37.0526493
  54.8636993  51.6073833  36.5446493  53.2676993  50.6283833  47.6826493
  53.3966993  50.3483833  48.4986493  52.6576993  50.0873833  47.3736493
  53.1966993  50.5073833  47.7576493  59.8416993  48.1533833  52.7496493
  59.6056993  48.1503833  53.5896493  59.0936993  48.0053833  52.3256493
  59.6956993  48.1303833  52.8106493  54.7136993  45.1493833  41.8846493
  54.2516993  44.7573833  41.2576493  55.4136993  44.6363833  41.9766493
  54.7486993  45.0163833  41.8056493  59.2216993  40.7593833  47.2316493
  59.8996993  40.7773833  46.6826493  59.1766993  39.9233833  47.4766493
  59.3146993  40.6383833  47.1866493  59.8236993  51.3453833  50.0126493
  59.9616993  52.1053833  49.6056493  60.6146993  50.9803833  50.0396493
  59.9606993  51.4043833  49.9566493  56.7146993  43.2493833  41.9076493
  57.5316993  43.0623833  42.1506493  56.2376993  42.6353833  42.3036493
  56.7646993  43.1313833  42.0026493  60.9186993  49.2303833  44.5176493
  61.2666993  48.4313833  44.5476493  61.5836993  49.7343833  44.2626493
  61.0686993  49.1863833  44.4846493  60.9756993  48.6793833  40.7286493
  61.3066993  48.0353833  41.2146493  61.2156993  48.4683833  39.9176493
  61.0596993  48.5533833  40.6806493  62.9436993  42.8103833  52.0676493
  62.0956993  42.7113833  51.8896493  62.9726993  43.5553833  52.5216493
  62.8226993  42.9063833  52.1086493  57.3116993  38.3433833  41.1736493
  57.0156993  38.8443833  40.5236493  58.1786993  38.4213833  41.1166493
  57.3956993  38.4293833  41.0696493  60.2906993  37.4853833  43.3966493
  60.3636993  38.3453833  43.5256493  60.2526993  37.4103833  42.5286493
  60.2956993  37.6013833  43.2876493  64.9636993  40.4113833  35.6956493
  64.5136993  41.0923833  36.0026493  65.0776993  39.9073833  36.3986493
  64.9146993  40.4373833  35.8446493  53.1696993  42.9103833  44.8976493
  52.9136993  43.7413833  44.8226493  52.5056993  42.5273833  45.3146493
  53.0336993  42.9763833  44.9486493  53.0796993  52.6203833  42.7976493
  52.4876993  53.1783833  42.4846493  53.5056993  52.3513833  42.0856493
  53.0556993  52.6623833  42.6466493  58.9196993  50.4643833  40.2776493
  58.3406993  50.1893833  40.8696493  59.5436993  49.8553833  40.3026493
  58.9266993  50.3343833  40.3686493  63.2306993  53.1443833  39.7896493
  63.4446993  53.6713833  40.4516493  63.9976993  52.9703833  39.4106493
  63.3756993  53.1963833  39.8316493  56.1986993  37.7273833  45.3886493
  55.6776993  37.0993833  45.0806493  56.7896993  37.2903833  45.8596493
  56.2096993  37.5693833  45.4126493  59.5046993  39.8603833  54.6866493
  59.6216993  39.4063833  53.9506493  59.7926993  40.6583833  54.4836493
  59.5646993  39.9113833  54.5476493  54.6246993  51.2903833  40.7286493
  55.2806993  50.7153833  40.7436493  55.0136993  52.0393833  40.5076493
  54.7796993  51.3153833  40.6986493  55.2376993  39.4573833  53.6706493
  54.4596993  39.0673833  53.5986493  55.7286993  39.0453833  53.0796493
  55.1946993  39.3383833  53.5726493  55.4426993  49.7773833  44.2286493
  55.8656993  49.4213833  43.5546493  55.7666993  49.3553833  44.9206493
  55.5526993  49.6623833  44.2316493  58.6736993  52.6293833  43.5246493
  59.5176993  52.7333833  43.3296493  58.3766993  53.4473833  43.5926493
  58.7546993  52.7653833  43.5056493  61.8866993  37.1003833  52.8386493
  62.0646993  36.2913833  52.5636493  61.7436993  37.5413833  52.0996493
  61.8916993  37.0463833  52.6886493  62.4806993  42.0263833  41.6116493
  62.7676993  41.7943833  40.8216493  63.2126993  42.1053833  42.0806493
  62.6306993  42.0033833  41.5646493  63.2026993  42.3653833  36.7326493
  63.4836993  43.1533833  36.9816493  62.4266993  42.5303833  36.3696493
  63.1296993  42.5063833  36.7156493  57.6716993  53.8483833  49.2646493
  57.9636993  53.7813833  50.0846493  57.0456993  53.2433833  49.2196493
  57.6226993  53.7493833  49.3796493  52.5856993  40.0053833  51.2566493
  52.5816993  40.5923833  51.9026493  53.1796993  40.3173833  50.6996493
  52.6726993  40.1383833  51.2696493  62.0616993  50.5363833  36.5486493
  61.8806993  51.0813833  37.2056493  62.8276993  50.8263833  36.2476493
  62.1476993  50.6603833  36.6016493  53.5226993  39.6003833  40.1716493
  53.4086993  38.7363833  40.2026493  53.0476993  39.8943833  40.8416493
  53.4356993  39.5163833  40.2746493  55.6646993  52.0103833  48.3866493
  54.9666993  51.5023833  48.5126493  55.9246993  51.8053833  47.5786493
  55.5996993  51.9053833  48.2856493  62.8266993  40.8083833  38.9166493
  62.3186993  40.1463833  38.6626493  62.8786993  41.3123833  38.2066493
  62.7596993  40.7853833  38.7746493  63.3756993  53.5033833  49.2966493
  64.1436993  53.4233833  48.8906493  62.7926993  53.3823833  48.6586493
  63.4026993  53.4733833  49.1426493  62.8266993  37.7493833  38.8076493
  62.3716993  37.3473833  38.1816493  63.5996993  37.9043833  38.4326493
  62.8736993  37.7133833  38.6596493  61.4246993  40.1163833  43.3296493
  61.4986993  40.6843833  42.6716493  61.5456993  40.6083833  44.0396493
  61.4526993  40.2733833  43.3376493  57.0256993  50.8613833  50.9536493
  57.8666993  50.9243833  50.7316493  56.9886993  51.2583833  51.7296493
  57.1446993  50.9293833  51.0356493  56.0326993  35.9393833  41.6776493
  56.5686993  36.6273833  41.6676493  56.0356993  35.6653833  40.8496493
  56.1116993  36.0003833  41.5536493  58.9886993  46.3723833  45.7026493
  59.1606993  46.1623833  46.5316493  58.3336993  45.8383833  45.4866493
  58.9176993  46.2623833  45.7936493  65.2166993  40.2863833  49.2176493
  65.1216993  40.6053833  50.0236493  64.6236993  39.6473833  49.1796493
  65.1146993  40.2383833  49.3316493  59.7386993  46.3103833  48.2926493
  59.7916993  47.1573833  48.4946493  59.4536993  45.9403833  49.0296493
  59.7046993  46.3803833  48.4306493  52.5596993  50.6813833  54.5036493
  53.3156993  51.0303833  54.7616493  52.7366993  49.8283833  54.4466493
  52.6976993  50.6063833  54.5336493  56.4806993  39.7493833  43.3316493
  56.7526993  39.3193833  42.6236493  56.3046993  39.1133833  43.9026493
  56.4946993  39.5923833  43.3116493  56.3046993  47.1763833  42.8806493
  57.1556993  47.0963833  42.7076493  55.9476993  46.4943833  42.4686493
  56.3776993  47.0633833  42.7936493  55.0716993  53.9013833  44.1176493
  54.3986993  53.4033833  43.8726493  55.4746993  54.0863833  43.3666493
  55.0316993  53.8553833  43.9706493  54.6216993  40.8513833  46.4136493
  55.4646993  41.0713833  46.3706493  54.2326993  41.4243833  45.8826493
  54.6886993  40.9683833  46.3286493  58.6726993  47.1833833  41.1156493
  59.3856993  47.6783833  41.2056493  58.8946993  46.6163833  40.4896493
  58.8106993  47.1723833  41.0366493  52.8286993  48.8263833  44.4356493
  52.1616993  49.3143833  44.7116493  53.5086993  49.3713833  44.4646493
  52.8306993  48.9783833  44.4806493  60.4756993  42.5363833  54.5316493
  59.9916993  43.1133833  54.9736493  60.4476993  42.8313833  53.7106493
  60.3996993  42.6653833  54.4756493  52.8946993  45.5103833  39.5386493
  52.7096993  44.6713833  39.6906493  53.5536993  45.4743833  38.9686493
  52.9646993  45.3813833  39.4766493  63.1956993  50.8863833  43.4426493
  62.6726993  51.5203833  43.1496493  63.5056993  50.5223833  42.7136493
  63.1636993  50.9263833  43.2916493  53.0666993  49.6743833  39.1136493
  53.6186993  50.2433833  39.4776493  52.8346993  49.1593833  39.7786493
  53.1136993  49.6823833  39.2656493  57.2706993  48.6743833  46.2026493
  57.7376993  48.9633833  46.8806493  57.8426993  48.1963833  45.7486493
  57.4246993  48.6463833  46.2356493  52.8966993  48.1233833  36.7416493
  53.6526993  47.6913833  36.7996493  52.9116993  48.6553833  37.4326493
  53.0106993  48.1383833  36.8526493  53.8366993  46.3443833  44.7466493
  54.2676993  46.2153833  43.9996493  53.6316993  47.1923833  44.7206493
  53.8696993  46.4503833  44.6326493  60.1826993  39.9083833  38.3966493
  60.1806993  39.7913833  37.5316493  60.0016993  40.7563833  38.4886493
  60.1556993  40.0163833  38.2826493  57.9206993  49.8603833  43.0286493
  58.0466993  50.7033833  43.2156493  58.5886993  49.4613833  43.4246493
  58.0386993  49.9263833  43.1146493  56.0506993  43.3433833  52.8906493
  55.5146993  42.8373833  53.3586493  56.0706993  42.9533833  52.1106493
  55.9736993  43.2103833  52.8446493  56.5356993  42.7403833  38.0306493
  56.4076993  42.2923833  38.7686493  55.9536993  42.3983833  37.4786493
  56.4306993  42.6233833  38.0586493  56.7026993  44.5703833  44.6296493
  55.9216993  44.5113833  44.2466493  56.7746993  43.8183833  45.0666493
  56.5976993  44.4513833  44.6376493  57.1326993  44.3073833  48.0976493
  57.1576993  43.6323833  47.5466493  56.4866993  44.8033833  47.7856493
  57.0416993  44.2803833  47.9706493  61.2326993  53.0843833  47.4896493
  60.9556993  52.4433833  46.9666493  61.0246993  53.8103833  47.0516493
  61.1616993  53.0973833  47.3476493  63.6726993  37.9263833  49.9226493
  63.8216993  37.1013833  49.6796493  64.0516993  37.9813833  50.7066493
  63.7506993  37.8123833  50.0026493  54.9316993  45.6623833  53.6566493
  54.8946993  46.1633833  52.9426493  55.2626993  44.9103833  53.3616493
  54.9746993  45.6243833  53.5076493  60.8306993  50.7123833  53.0916493
  61.1846993  50.5343833  53.8686493  60.3946993  49.9833833  52.8926493
  60.8186993  50.5783833  53.1776493  61.8026993  41.4593833  45.7296493
  62.2826993  42.1583833  45.9376493  62.1756993  40.8123833  46.1806493
  61.9286993  41.4673833  45.8266493  63.9916993  44.6283833  38.0036493
  63.9836993  45.3503833  37.5136493  63.3526993  44.7633833  38.5806493
  63.8966993  44.7553833  38.0166493  65.0086993  51.5643833  45.8286493
  64.4056993  51.2683833  45.2716493  65.5536993  52.0163833  45.3196493
  64.9996993  51.5873833  45.6706493  65.0216993  48.4153833  45.2286493
  64.2246993  48.6393833  45.5026493  65.2796993  47.8213833  45.8136493
  64.9416993  48.3603833  45.3556493  58.9136993  53.2273833  39.6766493
  58.7666993  52.4513833  40.0476493  59.6026993  53.0803833  39.1616493
  58.9936993  53.0903833  39.6556493  58.5846993  36.9703833  37.6646493
  58.6816993  36.8633833  38.5256493  57.8766993  37.4763833  37.5996493
  58.4946993  37.0293833  37.7826493  61.2056993  52.7433833  38.0786493
  61.8276993  52.9063833  38.6686493  61.2416993  53.4343833  37.5466493
  61.3026993  52.8693833  38.0876493  64.4726993  51.7623833  54.3516493
  64.6366993  52.0453833  55.1606493  64.7356993  52.4233833  53.8466493
  64.5356993  51.9023833  54.3966493  55.7066993  45.2773833  38.9076493
  56.0306993  44.4983833  38.6856493  56.3526993  45.6453833  39.3626493
  55.8496993  45.2163833  38.9416493  64.0126993  46.2193833  49.6746493
  63.8576993  46.8293833  50.2786493  64.5466993  45.6613833  50.0806493
  64.0686993  46.2273833  49.8236493  52.7036993  36.9383833  39.8756493
  52.8326993  36.2303833  39.3836493  52.3366993  36.6203833  40.6006493
  52.6686993  36.7863833  39.9106493  62.3966993  44.6193833  40.3326493
  62.4556993  45.2693833  40.9116493  62.2076993  43.9233833  40.8236493
  62.3776993  44.6123833  40.4906493  56.8926993  39.1363833  36.8446493
  56.3816993  39.1893833  36.1386493  57.6766993  39.3763833  36.5486493
  56.9326993  39.1793833  36.6966493  61.6196993  46.6663833  44.7636493
  60.7726993  46.4723833  44.8446493  61.9436993  46.5013833  45.5566493
  61.5416993  46.6133833  44.8926493  58.3716993  53.3963833  35.6496493
  58.8106993  52.6993833  35.9376493  58.5786993  54.0203833  36.2226493
  58.4676993  53.3853833  35.7766493  55.4676993  46.3593833  47.0796493
  56.1896993  46.8473833  47.0426493  55.1976993  46.3293833  46.2506493
  55.5346993  46.4273833  46.9516493  58.6976993  41.5303833  43.8146493
  59.5436993  41.3403833  43.9126493  58.3276993  40.7533833  43.6766493
  58.7676993  41.3873833  43.8086493  53.5186993  42.8683833  40.4696493
  54.0076993  42.5763833  41.1306493  53.6476993  42.2753833  39.8426493
  53.6096993  42.7373833  40.4746493  58.0436993  44.3023833  35.9556493
  57.4336993  43.8973833  36.4296493  57.6576993  44.4203833  35.1826493
  57.8966993  44.2593833  35.9116493  54.8626993  47.4113833  51.3576493
  54.4416993  46.8933833  50.7966493  54.5106993  48.1973833  51.2146493
  54.7486993  47.4513833  51.2536493  59.4986993  42.7633833  38.6656493
  59.7706993  43.5893833  38.7326493  58.6356993  42.8383833  38.5696493
  59.4116993  42.8963833  38.6606493  52.9786993  38.7333833  45.2016493
  53.0226993  39.0773833  44.4006493  53.7336993  38.9703833  45.5686493
  53.0966993  38.8193833  45.1376493  64.9196993  48.0723833  36.6716493
  65.6036993  47.5583833  36.5026493  64.5026993  48.1183833  35.9066493
  64.9586993  48.0033833  36.5336493  59.6016993  49.2223833  47.9756493
  59.3036993  49.8143833  48.5426493  59.6566993  49.6643833  47.2266493
  59.5656993  49.3753833  47.9486493  57.5806993  48.1723833  51.3736493
  56.7746993  47.8823833  51.5406493  57.4916993  49.0403833  51.3796493
  57.4486993  48.2573833  51.3986493  62.1176993  45.6453833  47.4666493
  62.5936993  46.0193833  48.0946493  61.2946993  45.7793833  47.7256493
  62.0666993  45.7203833  47.5976493  58.8276993  41.2483833  50.2076493
  58.9886993  40.5043833  50.6346493  58.7826993  40.9993833  49.3726493
  58.8446993  41.1013833  50.1476493  61.3816993  53.0383833  42.6946493
  61.9276993  53.7173833  42.7486493  61.0316993  53.1203833  41.8996493
  61.4106993  53.1513833  42.5846493  60.5796993  37.0563833  50.0876493
  61.2846993  37.3763833  49.6856493  60.8206993  36.2493833  50.3146493
  60.7186993  36.9843833  50.0616493  59.5646993  51.2663833  46.0836493
  58.9406993  51.8483833  45.9016493  59.8126993  50.9803833  45.2976493
  59.5086993  51.3103833  45.9406493  63.8736993  47.9003833  53.0726493
  64.6306993  48.1863833  52.7466493  63.3266993  47.9523833  52.3946493
  63.9046993  47.9503833  52.9236493  61.1586993  46.0423833  35.9986493
  60.3536993  45.8653833  35.7136493  61.1256993  46.8933833  36.1906493
  61.0346993  46.1413833  35.9856493  57.0886993  42.1093833  46.1486493
  57.5286993  42.0063833  45.4026493  57.6336993  41.7963833  46.7536493
  57.2336993  42.0483833  46.1276493  64.7926993  42.7483833  48.0386493
  65.0946993  43.1683833  48.7416493  64.8286993  41.9083833  48.2706493
  64.8426993  42.6863833  48.1766493  62.2176993  52.9153833  51.9636493
  62.6956993  52.3153833  51.5476493  61.8666993  52.4723833  52.6286493
  62.2366993  52.7613833  52.0006493  60.6356993  37.0943833  46.1956493
  59.8096993  36.9453833  46.4326493  60.5956993  37.1293833  45.3246493
  60.5076993  37.0773833  46.1016493  62.2766993  48.1343833  50.9836493
  61.4816993  48.0703833  51.3346493  62.3476993  48.9813833  50.7886493
  62.1696993  48.2493833  51.0066493  53.2006993  37.4923833  52.2306493
  53.0606993  38.2873833  51.8996493  52.4146993  37.2493833  52.5196493
  53.0636993  37.5743833  52.2246493  58.1066993  54.3413833  46.3006493
  58.1176993  54.4003833  47.1706493  57.6816993  53.5943833  46.1506493
  58.0456993  54.2393833  46.4066493  56.2646993  40.2363833  39.4556493
  56.3906993  39.9073833  38.6576493  55.4526993  39.9873833  39.6546493
  56.1636993  40.1513833  39.3676493  65.0216993  47.3893833  42.4996493
  65.0976993  47.7303833  43.2986493  65.1906993  46.5423833  42.6206493
  65.0576993  47.3143833  42.6356493  62.5436993  46.6633833  42.0646493
  62.2456993  46.3483833  42.8216493  63.2386993  47.1363833  42.2996493
  62.6026993  46.6863833  42.2116493  62.7656993  50.7813833  50.0916493
  63.4526993  50.6673833  50.6166493  62.8996993  51.5723833  49.7476493
  62.8866993  50.8813833  50.1186493  54.8706993  53.8393833  51.7426493
  54.2166993  53.2703833  51.8406493  54.4956993  54.6123833  51.8936493
  54.7186993  53.8693833  51.7796493  63.3886993  45.2453833  53.6656493
  63.7116993  45.9313833  53.2336493  62.6846993  45.5683833  54.0676493
  63.3316993  45.3943833  53.6606493  63.1736993  48.7093833  47.5246493
  62.4796993  49.1113833  47.8676493  63.8506993  49.1423833  47.8636493
  63.1706993  48.8323833  47.6256493  56.2416993  42.2473833  49.8716493
  56.6166993  42.8663833  49.3846493  56.9156993  41.7733833  50.1566493
  56.3966993  42.2693833  49.8416493  54.0166993  40.6953833  49.1466493
  54.0936993  40.5263833  48.2936493  54.7626993  41.1013833  49.3436493
  54.1376993  40.7303833  49.0496493  56.5706993  38.1053833  51.5576493
  56.4896993  37.2613833  51.7636493  56.2566993  38.1493833  50.7446493
  56.5126993  37.9873833  51.4676493  63.4956993  50.3003833  40.6936493
  63.2906993  51.1333833  40.5346493  62.7206993  49.9183833  40.8156493
  63.3506993  50.3673833  40.6886493  53.4136993  45.9213833  49.3706493
  53.7336993  46.1403833  48.5896493  53.3136993  45.0563833  49.3156493
  53.4456993  45.8263833  49.2476493  54.8696993  41.8573833  35.9886493
  54.1976993  41.8713833  36.5446493  54.9646993  41.0093833  35.8046493
  54.7846993  41.7343833  36.0436493  64.5566993  38.2813833  52.7246493
  64.6486993  38.9933833  53.2186493  63.9196993  37.8363833  53.1216493
  64.4756993  38.3203833  52.8566493  63.5506993  38.4713833  43.5786493
  62.8506993  38.9893833  43.5226493  63.5886993  38.0913833  42.7946493
  63.4526993  38.4923833  43.4546493  58.8576993  50.5623833  37.1026493
  59.2986993  50.6423833  37.8506493  58.0526993  50.3463833  37.3606493
  58.8036993  50.5423833  37.2516493  58.1766993  45.2133833  50.7556493
  57.7806993  45.9873833  50.8306493  57.7706993  44.8403833  50.0796493
  58.0586993  45.2723833  50.6666493  56.1866993  49.6323833  37.7036493
  55.9426993  49.3253833  38.4836493  56.1536993  48.9293833  37.1876493
  56.1456993  49.4833833  37.7426493  59.0056993  47.8773833  36.4466493
  58.1876993  47.6093833  36.5866493  58.9776993  48.7293833  36.6316493
  58.8806993  47.9643833  36.4946493  58.6056993  38.1903833  48.2056493
  57.7416993  38.2743833  48.2856493  58.8256993  37.6763833  48.8746493
  58.5106993  38.1273833  48.3166493  62.7086993  38.9383833  46.5796493
  61.9716993  38.4843833  46.6926493  63.2796993  38.5363833  47.1026493
  62.6836993  38.8113833  46.6736493  65.4406993  49.7863833  48.3676493
  65.6466993  50.0873833  49.1596493  65.3796993  50.5083833  47.8826493
  65.4616993  49.9373833  48.4126493  64.9746993  54.0003833  52.6136493
  64.2216993  53.9823833  52.1726493  65.1426993  54.8523833  52.6976493
  64.8886993  54.1233833  52.5606493  60.2116993  43.2673833  51.7836493
  59.8896993  42.6913833  51.2136493  59.8526993  44.0223833  51.5376493
  60.1116993  43.2933833  51.6636493  61.0076993  36.5193833  36.4106493
  61.0856993  36.7663833  35.5776493  60.2646993  36.8963833  36.6686493
  60.9096993  36.6113833  36.3256493  58.6466993  53.6233833  52.0316493
  58.6876993  53.7493833  52.8946493  59.2976993  53.0633833  51.8756493
  58.7486993  53.5593833  52.1366493  55.8256993  38.2733833  48.8536493
  55.4826993  37.5063833  48.6196493  55.1306993  38.7973833  48.9176493
  55.6726993  38.2373833  48.8286493  64.8716993  37.1293833  45.8306493
  65.5416993  37.6733833  45.9576493  64.3686993  37.5533833  45.2576493
  64.8966993  37.2723833  45.7646493  56.2396993  52.0063833  53.3916493
  56.8346993  52.4373833  53.8636493  55.8756993  52.6303833  52.9026493
  56.2736993  52.1623833  53.3886493  64.2306993  42.9373833  43.3236493
  64.7816993  42.3303833  43.6236493  63.8056993  43.2003833  44.0386493
  64.2496993  42.8863833  43.4726493  54.4786993  41.5873833  42.8096493
  54.1106993  41.8893833  43.5406493  55.0126993  40.9583833  43.0936493
  54.5026993  41.5393833  42.9596493  54.1666993  49.9953833  50.3206493
  53.5926993  50.4113833  50.8296493  54.8996993  50.4603833  50.4156493
  54.1906993  50.1253833  50.4096493  55.9526993  53.2623833  39.0956493
  55.8076993  53.4183833  38.2496493  56.8186993  53.3413833  39.1736493
  56.0596993  53.2973833  38.9826493  60.1196993  45.6593833  38.8236493
  60.2196993  45.7983833  37.9686493  60.9376993  45.5993833  39.1196493
  60.2546993  45.6703833  38.7406493  65.3546993  49.9883833  38.6256493
  65.1036993  49.8603833  39.4516493  65.0376993  49.2933833  38.2046493
  65.2706993  49.8673833  38.6856493  59.2586993  38.6343833  51.9396493
  59.4926993  38.0583833  51.3266493  58.4166993  38.4533833  52.0806493
  59.1686993  38.5223833  51.8696493  56.6396993  52.0773833  45.5726493
  56.5606993  51.2673833  45.2566493  56.1956993  52.5643833  45.0006493
  56.5626993  52.0293833  45.4416493  62.2406993  48.1963833  38.0556493
  62.9576993  47.8493833  37.6996493  62.2066993  48.9963833  37.7076493
  62.3416993  48.2633833  37.9516493  54.2116993  54.3213833  49.1536493
  54.7046993  54.2653833  49.8716493  54.3996993  53.5883833  48.7186493
  54.3126993  54.2043833  49.1956493  63.6496993  36.8373833  22.2944083
  63.4046993  37.3253833  21.6144083  64.5126993  36.7643833  22.1944083
  63.7406993  36.8983833  22.1794083  63.4586993  43.7533833  26.9654083
  62.9346993  44.3493833  27.3284083  63.8556993  43.3853833  27.6494083
  63.4396993  43.7873833  27.1204083  53.3276993  47.8933833  22.4214083
  52.8866993  48.0113833  23.1644083  53.0446993  47.1183833  22.1364083
  53.2206993  47.7963833  22.4894083  53.0706993  41.6853833  18.9284083
  52.2926993  41.8473833  18.5684083  53.1096993  40.8143833  18.9504083
  52.9616993  41.5803833  18.8784083  56.2096993  46.9483833  17.6004083
  55.8176993  46.5773833  16.9144083  56.1296993  46.3503833  18.2294083
  56.1396993  46.8053833  17.5914083  55.8366993  48.5893833  21.5004083
  56.4446993  48.4193833  22.1034083  55.0856993  48.4493833  21.9214083
  55.8156993  48.5433833  21.6514083  60.1186993  37.9243833  21.4494083
  60.0486993  38.6013833  20.9034083  60.8596993  37.5363833  21.2004083
  60.2176993  37.9673833  21.3314083  54.7276993  51.6803833  17.5774083
  55.1946993  51.7643833  16.8454083  55.1826993  51.1023833  18.0464083
  54.8636993  51.6073833  17.5384083  53.2676993  50.6283833  28.6764083
  53.3966993  50.3483833  29.4924083  52.6576993  50.0873833  28.3674083
  53.1966993  50.5073833  28.7514083  59.8416993  48.1533833  33.7434083
  59.6056993  48.1503833  34.5834083  59.0936993  48.0053833  33.3194083
  59.6956993  48.1303833  33.8044083  54.7136993  45.1493833  22.8784083
  54.2516993  44.7573833  22.2514083  55.4136993  44.6363833  22.9704083
  54.7486993  45.0163833  22.7994083  59.2216993  40.7593833  28.2254083
  59.8996993  40.7773833  27.6764083  59.1766993  39.9233833  28.4704083
  59.3146993  40.6383833  28.1804083  59.8236993  51.3453833  31.0064083
  59.9616993  52.1053833  30.5994083  60.6146993  50.9803833  31.0334083
  59.9606993  51.4043833  30.9504083  56.7146993  43.2493833  22.9014083
  57.5316993  43.0623833  23.1444083  56.2376993  42.6353833  23.2974083
  56.7646993  43.1313833  22.9964083  60.9186993  49.2303833  25.5114083
  61.2666993  48.4313833  25.5414083  61.5836993  49.7343833  25.2564083
  61.0686993  49.1863833  25.4784083  60.9756993  48.6793833  21.7224083
  61.3066993  48.0353833  22.2084083  61.2156993  48.4683833  20.9114083
  61.0596993  48.5533833  21.6744083  62.9436993  42.8103833  33.0614083
  62.0956993  42.7113833  32.8834083  62.9726993  43.5553833  33.5154083
  62.8226993  42.9063833  33.1024083  57.3116993  38.3433833  22.1674083
  57.0156993  38.8443833  21.5174083  58.1786993  38.4213833  22.1104083
  57.3956993  38.4293833  22.0634083  60.2906993  37.4853833  24.3904083
  60.3636993  38.3453833  24.5194083  60.2526993  37.4103833  23.5224083
  60.2956993  37.6013833  24.2814083  64.9636993  40.4113833  16.6894083
  64.5136993  41.0923833  16.9964083  65.0776993  39.9073833  17.3924083
  64.9146993  40.4373833  16.8384083  53.1696993  42.9103833  25.8914083
  52.9136993  43.7413833  25.8164083  52.5056993  42.5273833  26.3084083
  53.0336993  42.9763833  25.9424083  53.0796993  52.6203833  23.7914083
  52.4876993  53.1783833  23.4784083  53.5056993  52.3513833  23.0794083
  53.0556993  52.6623833  23.6404083  58.9196993  50.4643833  21.2714083
  58.3406993  50.1893833  21.8634083  59.5436993  49.8553833  21.2964083
  58.9266993  50.3343833  21.3624083  63.2306993  53.1443833  20.7834083
  63.4446993  53.6713833  21.4454083  63.9976993  52.9703833  20.4044083
  63.3756993  53.1963833  20.8254083  56.1986993  37.7273833  26.3824083
  55.6776993  37.0993833  26.0744083  56.7896993  37.2903833  26.8534083
  56.2096993  37.5693833  26.4064083  59.5046993  39.8603833  35.6804083
  59.6216993  39.4063833  34.9444083  59.7926993  40.6583833  35.4774083
  59.5646993  39.9113833  35.5414083  54.6246993  51.2903833  21.7224083
  55.2806993  50.7153833  21.7374083  55.0136993  52.0393833  21.5014083
  54.7796993  51.3153833  21.6924083  55.2376993  39.4573833  34.6644083
  54.4596993  39.0673833  34.5924083  55.7286993  39.0453833  34.0734083
  55.1946993  39.3383833  34.5664083  55.4426993  49.7773833  25.2224083
  55.8656993  49.4213833  24.5484083  55.7666993  49.3553833  25.9144083
  55.5526993  49.6623833  25.2254083  58.6736993  52.6293833  24.5184083
  59.5176993  52.7333833  24.3234083  58.3766993  53.4473833  24.5864083
  58.7546993  52.7653833  24.4994083  61.8866993  37.1003833  33.8324083
  62.0646993  36.2913833  33.5574083  61.7436993  37.5413833  33.0934083
  61.8916993  37.0463833  33.6824083  62.4806993  42.0263833  22.6054083
  62.7676993  41.7943833  21.8154083  63.2126993  42.1053833  23.0744083
  62.6306993  42.0033833  22.5584083  63.2026993  42.3653833  17.7264083
  63.4836993  43.1533833  17.9754083  62.4266993  42.5303833  17.3634083
  63.1296993  42.5063833  17.7094083  57.6716993  53.8483833  30.2584083
  57.9636993  53.7813833  31.0784083  57.0456993  53.2433833  30.2134083
  57.6226993  53.7493833  30.3734083  52.5856993  40.0053833  32.2504083
  52.5816993  40.5923833  32.8964083  53.1796993  40.3173833  31.6934083
  52.6726993  40.1383833  32.2634083  62.0616993  50.5363833  17.5424083
  61.8806993  51.0813833  18.1994083  62.8276993  50.8263833  17.2414083
  62.1476993  50.6603833  17.5954083  53.5226993  39.6003833  21.1654083
  53.4086993  38.7363833  21.1964083  53.0476993  39.8943833  21.8354083
  53.4356993  39.5163833  21.2684083  55.6646993  52.0103833  29.3804083
  54.9666993  51.5023833  29.5064083  55.9246993  51.8053833  28.5724083
  55.5996993  51.9053833  29.2794083  62.8266993  40.8083833  19.9104083
  62.3186993  40.1463833  19.6564083  62.8786993  41.3123833  19.2004083
  62.7596993  40.7853833  19.7684083  63.3756993  53.5033833  30.2904083
  64.1436993  53.4233833  29.8844083  62.7926993  53.3823833  29.6524083
  63.4026993  53.4733833  30.1364083  62.8266993  37.7493833  19.8014083
  62.3716993  37.3473833  19.1754083  63.5996993  37.9043833  19.4264083
  62.8736993  37.7133833  19.6534083  61.4246993  40.1163833  24.3234083
  61.4986993  40.6843833  23.6654083  61.5456993  40.6083833  25.0334083
  61.4526993  40.2733833  24.3314083  57.0256993  50.8613833  31.9474083
  57.8666993  50.9243833  31.7254083  56.9886993  51.2583833  32.7234083
  57.1446993  50.9293833  32.0294083  56.0326993  35.9393833  22.6714083
  56.5686993  36.6273833  22.6614083  56.0356993  35.6653833  21.8434083
  56.1116993  36.0003833  22.5474083  58.9886993  46.3723833  26.6964083
  59.1606993  46.1623833  27.5254083  58.3336993  45.8383833  26.4804083
  58.9176993  46.2623833  26.7874083  65.2166993  40.2863833  30.2114083
  65.1216993  40.6053833  31.0174083  64.6236993  39.6473833  30.1734083
  65.1146993  40.2383833  30.3254083  59.7386993  46.3103833  29.2864083
  59.7916993  47.1573833  29.4884083  59.4536993  45.9403833  30.0234083
  59.7046993  46.3803833  29.4244083  52.5596993  50.6813833  35.4974083
  53.3156993  51.0303833  35.7554083  52.7366993  49.8283833  35.4404083
  52.6976993  50.6063833  35.5274083  56.4806993  39.7493833  24.3254083
  56.7526993  39.3193833  23.6174083  56.3046993  39.1133833  24.8964083
  56.4946993  39.5923833  24.3054083  56.3046993  47.1763833  23.8744083
  57.1556993  47.0963833  23.7014083  55.9476993  46.4943833  23.4624083
  56.3776993  47.0633833  23.7874083  55.0716993  53.9013833  25.1114083
  54.3986993  53.4033833  24.8664083  55.4746993  54.0863833  24.3604083
  55.0316993  53.8553833  24.9644083  54.6216993  40.8513833  27.4074083
  55.4646993  41.0713833  27.3644083  54.2326993  41.4243833  26.8764083
  54.6886993  40.9683833  27.3224083  58.6726993  47.1833833  22.1094083
  59.3856993  47.6783833  22.1994083  58.8946993  46.6163833  21.4834083
  58.8106993  47.1723833  22.0304083  52.8286993  48.8263833  25.4294083
  52.1616993  49.3143833  25.7054083  53.5086993  49.3713833  25.4584083
  52.8306993  48.9783833  25.4744083  60.4756993  42.5363833  35.5254083
  59.9916993  43.1133833  35.9674083  60.4476993  42.8313833  34.7044083
  60.3996993  42.6653833  35.4694083  52.8946993  45.5103833  20.5324083
  52.7096993  44.6713833  20.6844083  53.5536993  45.4743833  19.9624083
  52.9646993  45.3813833  20.4704083  63.1956993  50.8863833  24.4364083
  62.6726993  51.5203833  24.1434083  63.5056993  50.5223833  23.7074083
  63.1636993  50.9263833  24.2854083  53.0666993  49.6743833  20.1074083
  53.6186993  50.2433833  20.4714083  52.8346993  49.1593833  20.7724083
  53.1136993  49.6823833  20.2594083  57.2706993  48.6743833  27.1964083
  57.7376993  48.9633833  27.8744083  57.8426993  48.1963833  26.7424083
  57.4246993  48.6463833  27.2294083  52.8966993  48.1233833  17.7354083
  53.6526993  47.6913833  17.7934083  52.9116993  48.6553833  18.4264083
  53.0106993  48.1383833  17.8464083  53.8366993  46.3443833  25.7404083
  54.2676993  46.2153833  24.9934083  53.6316993  47.1923833  25.7144083
  53.8696993  46.4503833  25.6264083  60.1826993  39.9083833  19.3904083
  60.1806993  39.7913833  18.5254083  60.0016993  40.7563833  19.4824083
  60.1556993  40.0163833  19.2764083  57.9206993  49.8603833  24.0224083
  58.0466993  50.7033833  24.2094083  58.5886993  49.4613833  24.4184083
  58.0386993  49.9263833  24.1084083  56.0506993  43.3433833  33.8844083
  55.5146993  42.8373833  34.3524083  56.0706993  42.9533833  33.1044083
  55.9736993  43.2103833  33.8384083  56.5356993  42.7403833  19.0244083
  56.4076993  42.2923833  19.7624083  55.9536993  42.3983833  18.4724083
  56.4306993  42.6233833  19.0524083  56.7026993  44.5703833  25.6234083
  55.9216993  44.5113833  25.2404083  56.7746993  43.8183833  26.0604083
  56.5976993  44.4513833  25.6314083  57.1326993  44.3073833  29.0914083
  57.1576993  43.6323833  28.5404083  56.4866993  44.8033833  28.7794083
  57.0416993  44.2803833  28.9644083  61.2326993  53.0843833  28.4834083
  60.9556993  52.4433833  27.9604083  61.0246993  53.8103833  28.0454083
  61.1616993  53.0973833  28.3414083  63.6726993  37.9263833  30.9164083
  63.8216993  37.1013833  30.6734083  64.0516993  37.9813833  31.7004083
  63.7506993  37.8123833  30.9964083  54.9316993  45.6623833  34.6504083
  54.8946993  46.1633833  33.9364083  55.2626993  44.9103833  34.3554083
  54.9746993  45.6243833  34.5014083  60.8306993  50.7123833  34.0854083
  61.1846993  50.5343833  34.8624083  60.3946993  49.9833833  33.8864083
  60.8186993  50.5783833  34.1714083  61.8026993  41.4593833  26.7234083
  62.2826993  42.1583833  26.9314083  62.1756993  40.8123833  27.1744083
  61.9286993  41.4673833  26.8204083  63.9916993  44.6283833  18.9974083
  63.9836993  45.3503833  18.5074083  63.3526993  44.7633833  19.5744083
  63.8966993  44.7553833  19.0104083  65.0086993  51.5643833  26.8224083
  64.4056993  51.2683833  26.2654083  65.5536993  52.0163833  26.3134083
  64.9996993  51.5873833  26.6644083  65.0216993  48.4153833  26.2224083
  64.2246993  48.6393833  26.4964083  65.2796993  47.8213833  26.8074083
  64.9416993  48.3603833  26.3494083  58.9136993  53.2273833  20.6704083
  58.7666993  52.4513833  21.0414083  59.6026993  53.0803833  20.1554083
  58.9936993  53.0903833  20.6494083  58.5846993  36.9703833  18.6584083
  58.6816993  36.8633833  19.5194083  57.8766993  37.4763833  18.5934083
  58.4946993  37.0293833  18.7764083  61.2056993  52.7433833  19.0724083
  61.8276993  52.9063833  19.6624083  61.2416993  53.4343833  18.5404083
  61.3026993  52.8693833  19.0814083  64.4726993  51.7623833  35.3454083
  64.6366993  52.0453833  36.1544083  64.7356993  52.4233833  34.8404083
  64.5356993  51.9023833  35.3904083  55.7066993  45.2773833  19.9014083
  56.0306993  44.4983833  19.6794083  56.3526993  45.6453833  20.3564083
  55.8496993  45.2163833  19.9354083  64.0126993  46.2193833  30.6684083
  63.8576993  46.8293833  31.2724083  64.5466993  45.6613833  31.0744083
  64.0686993  46.2273833  30.8174083  52.7036993  36.9383833  20.8694083
  52.8326993  36.2303833  20.3774083  52.3366993  36.6203833  21.5944083
  52.6686993  36.7863833  20.9044083  62.3966993  44.6193833  21.3264083
  62.4556993  45.2693833  21.9054083  62.2076993  43.9233833  21.8174083
  62.3776993  44.6123833  21.4844083  56.8926993  39.1363833  17.8384083
  56.3816993  39.1893833  17.1324083  57.6766993  39.3763833  17.5424083
  56.9326993  39.1793833  17.6904083  61.6196993  46.6663833  25.7574083
  60.7726993  46.4723833  25.8384083  61.9436993  46.5013833  26.5504083
  61.5416993  46.6133833  25.8864083  58.3716993  53.3963833  16.6434083
  58.8106993  52.6993833  16.9314083  58.5786993  54.0203833  17.2164083
  58.4676993  53.3853833  16.7704083  55.4676993  46.3593833  28.0734083
  56.1896993  46.8473833  28.0364083  55.1976993  46.3293833  27.2444083
  55.5346993  46.4273833  27.9454083  58.6976993  41.5303833  24.8084083
  59.5436993  41.3403833  24.9064083  58.3276993  40.7533833  24.6704083
  58.7676993  41.3873833  24.8024083  53.5186993  42.8683833  21.4634083
  54.0076993  42.5763833  22.1244083  53.6476993  42.2753833  20.8364083
  53.6096993  42.7373833  21.4684083  58.0436993  44.3023833  16.9494083
  57.4336993  43.8973833  17.4234083  57.6576993  44.4203833  16.1764083
  57.8966993  44.2593833  16.9054083  54.8626993  47.4113833  32.3514083
  54.4416993  46.8933833  31.7904083  54.5106993  48.1973833  32.2084083
  54.7486993  47.4513833  32.2474083  59.4986993  42.7633833  19.6594083
  59.7706993  43.5893833  19.7264083  58.6356993  42.8383833  19.5634083
  59.4116993  42.8963833  19.6544083  52.9786993  38.7333833  26.1954083
  53.0226993  39.0773833  25.3944083  53.7336993  38.9703833  26.5624083
  53.0966993  38.8193833  26.1314083  64.9196993  48.0723833  17.6654083
  65.6036993  47.5583833  17.4964083  64.5026993  48.1183833  16.9004083
  64.9586993  48.0033833  17.5274083  59.6016993  49.2223833  28.9694083
  59.3036993  49.8143833  29.5364083  59.6566993  49.6643833  28.2204083
  59.5656993  49.3753833  28.9424083  57.5806993  48.1723833  32.3674083
  56.7746993  47.8823833  32.5344083  57.4916993  49.0403833  32.3734083
  57.4486993  48.2573833  32.3924083  62.1176993  45.6453833  28.4604083
  62.5936993  46.0193833  29.0884083  61.2946993  45.7793833  28.7194083
  62.0666993  45.7203833  28.5914083  58.8276993  41.2483833  31.2014083
  58.9886993  40.5043833  31.6284083  58.7826993  40.9993833  30.3664083
  58.8446993  41.1013833  31.1414083  61.3816993  53.0383833  23.6884083
  61.9276993  53.7173833  23.7424083  61.0316993  53.1203833  22.8934083
  61.4106993  53.1513833  23.5784083  60.5796993  37.0563833  31.0814083
  61.2846993  37.3763833  30.6794083  60.8206993  36.2493833  31.3084083
  60.7186993  36.9843833  31.0554083  59.5646993  51.2663833  27.0774083
  58.9406993  51.8483833  26.8954083  59.8126993  50.9803833  26.2914083
  59.5086993  51.3103833  26.9344083  63.8736993  47.9003833  34.0664083
  64.6306993  48.1863833  33.7404083  63.3266993  47.9523833  33.3884083
  63.9046993  47.9503833  33.9174083  61.1586993  46.0423833  16.9924083
  60.3536993  45.8653833  16.7074083  61.1256993  46.8933833  17.1844083
  61.0346993  46.1413833  16.9794083  57.0886993  42.1093833  27.1424083
  57.5286993  42.0063833  26.3964083  57.6336993  41.7963833  27.7474083
  57.2336993  42.0483833  27.1214083  64.7926993  42.7483833  29.0324083
  65.0946993  43.1683833  29.7354083  64.8286993  41.9083833  29.2644083
  64.8426993  42.6863833  29.1704083  62.2176993  52.9153833  32.9574083
  62.6956993  52.3153833  32.5414083  61.8666993  52.4723833  33.6224083
  62.2366993  52.7613833  32.9944083  60.6356993  37.0943833  27.1894083
  59.8096993  36.9453833  27.4264083  60.5956993  37.1293833  26.3184083
  60.5076993  37.0773833  27.0954083  62.2766993  48.1343833  31.9774083
  61.4816993  48.0703833  32.3284083  62.3476993  48.9813833  31.7824083
  62.1696993  48.2493833  32.0004083  53.2006993  37.4923833  33.2244083
  53.0606993  38.2873833  32.8934083  52.4146993  37.2493833  33.5134083
  53.0636993  37.5743833  33.2184083  58.1066993  54.3413833  27.2944083
  58.1176993  54.4003833  28.1644083  57.6816993  53.5943833  27.1444083
  58.0456993  54.2393833  27.4004083  56.2646993  40.2363833  20.4494083
  56.3906993  39.9073833  19.6514083  55.4526993  39.9873833  20.6484083
  56.1636993  40.1513833  20.3614083  65.0216993  47.3893833  23.4934083
  65.0976993  47.7303833  24.2924083  65.1906993  46.5423833  23.6144083
  65.0576993  47.3143833  23.6294083  62.5436993  46.6633833  23.0584083
  62.2456993  46.3483833  23.8154083  63.2386993  47.1363833  23.2934083
  62.6026993  46.6863833  23.2054083  62.7656993  50.7813833  31.0854083
  63.4526993  50.6673833  31.6104083  62.8996993  51.5723833  30.7414083
  62.8866993  50.8813833  31.1124083  54.8706993  53.8393833  32.7364083
  54.2166993  53.2703833  32.8344083  54.4956993  54.6123833  32.8874083
  54.7186993  53.8693833  32.7734083  63.3886993  45.2453833  34.6594083
  63.7116993  45.9313833  34.2274083  62.6846993  45.5683833  35.0614083
  63.3316993  45.3943833  34.6544083  63.1736993  48.7093833  28.5184083
  62.4796993  49.1113833  28.8614083  63.8506993  49.1423833  28.8574083
  63.1706993  48.8323833  28.6194083  56.2416993  42.2473833  30.8654083
  56.6166993  42.8663833  30.3784083  56.9156993  41.7733833  31.1504083
  56.3966993  42.2693833  30.8354083  54.0166993  40.6953833  30.1404083
  54.0936993  40.5263833  29.2874083  54.7626993  41.1013833  30.3374083
  54.1376993  40.7303833  30.0434083  56.5706993  38.1053833  32.5514083
  56.4896993  37.2613833  32.7574083  56.2566993  38.1493833  31.7384083
  56.5126993  37.9873833  32.4614083  63.4956993  50.3003833  21.6874083
  63.2906993  51.1333833  21.5284083  62.7206993  49.9183833  21.8094083
  63.3506993  50.3673833  21.6824083  53.4136993  45.9213833  30.3644083
  53.7336993  46.1403833  29.5834083  53.3136993  45.0563833  30.3094083
  53.4456993  45.8263833  30.2414083  54.8696993  41.8573833  16.9824083
  54.1976993  41.8713833  17.5384083  54.9646993  41.0093833  16.7984083
  54.7846993  41.7343833  17.0374083  64.5566993  38.2813833  33.7184083
  64.6486993  38.9933833  34.2124083  63.9196993  37.8363833  34.1154083
  64.4756993  38.3203833  33.8504083  63.5506993  38.4713833  24.5724083
  62.8506993  38.9893833  24.5164083  63.5886993  38.0913833  23.7884083
  63.4526993  38.4923833  24.4484083  58.8576993  50.5623833  18.0964083
  59.2986993  50.6423833  18.8444083  58.0526993  50.3463833  18.3544083
  58.8036993  50.5423833  18.2454083  58.1766993  45.2133833  31.7494083
  57.7806993  45.9873833  31.8244083  57.7706993  44.8403833  31.0734083
  58.0586993  45.2723833  31.6604083  56.1866993  49.6323833  18.6974083
  55.9426993  49.3253833  19.4774083  56.1536993  48.9293833  18.1814083
  56.1456993  49.4833833  18.7364083  59.0056993  47.8773833  17.4404083
  58.1876993  47.6093833  17.5804083  58.9776993  48.7293833  17.6254083
  58.8806993  47.9643833  17.4884083  58.6056993  38.1903833  29.1994083
  57.7416993  38.2743833  29.2794083  58.8256993  37.6763833  29.8684083
  58.5106993  38.1273833  29.3104083  62.7086993  38.9383833  27.5734083
  61.9716993  38.4843833  27.6864083  63.2796993  38.5363833  28.0964083
  62.6836993  38.8113833  27.6674083  65.4406993  49.7863833  29.3614083
  65.6466993  50.0873833  30.1534083  65.3796993  50.5083833  28.8764083
  65.4616993  49.9373833  29.4064083  64.9746993  54.0003833  33.6074083
  64.2216993  53.9823833  33.1664083  65.1426993  54.8523833  33.6914083
  64.8886993  54.1233833  33.5544083  60.2116993  43.2673833  32.7774083
  59.8896993  42.6913833  32.2074083  59.8526993  44.0223833  32.5314083
  60.1116993  43.2933833  32.6574083  61.0076993  36.5193833  17.4044083
  61.0856993  36.7663833  16.5714083  60.2646993  36.8963833  17.6624083
  60.9096993  36.6113833  17.3194083  58.6466993  53.6233833  33.0254083
  58.6876993  53.7493833  33.8884083  59.2976993  53.0633833  32.8694083
  58.7486993  53.5593833  33.1304083  55.8256993  38.2733833  29.8474083
  55.4826993  37.5063833  29.6134083  55.1306993  38.7973833  29.9114083
  55.6726993  38.2373833  29.8224083  64.8716993  37.1293833  26.8244083
  65.5416993  37.6733833  26.9514083  64.3686993  37.5533833  26.2514083
  64.8966993  37.2723833  26.7584083  56.2396993  52.0063833  34.3854083
  56.8346993  52.4373833  34.8574083  55.8756993  52.6303833  33.8964083
  56.2736993  52.1623833  34.3824083  64.2306993  42.9373833  24.3174083
  64.7816993  42.3303833  24.6174083  63.8056993  43.2003833  25.0324083
  64.2496993  42.8863833  24.4664083  54.4786993  41.5873833  23.8034083
  54.1106993  41.8893833  24.5344083  55.0126993  40.9583833  24.0874083
  54.5026993  41.5393833  23.9534083  54.1666993  49.9953833  31.3144083
  53.5926993  50.4113833  31.8234083  54.8996993  50.4603833  31.4094083
  54.1906993  50.1253833  31.4034083  55.9526993  53.2623833  20.0894083
  55.8076993  53.4183833  19.2434083  56.8186993  53.3413833  20.1674083
  56.0596993  53.2973833  19.9764083  60.1196993  45.6593833  19.8174083
  60.2196993  45.7983833  18.9624083  60.9376993  45.5993833  20.1134083
  60.2546993  45.6703833  19.7344083  65.3546993  49.9883833  19.6194083
  65.1036993  49.8603833  20.4454083  65.0376993  49.2933833  19.1984083
  65.2706993  49.8673833  19.6794083  59.2586993  38.6343833  32.9334083
  59.4926993  38.0583833  32.3204083  58.4166993  38.4533833  33.0744083
  59.1686993  38.5223833  32.8634083  56.6396993  52.0773833  26.5664083
  56.5606993  51.2673833  26.2504083  56.1956993  52.5643833  25.9944083
  56.5626993  52.0293833  26.4354083  62.2406993  48.1963833  19.0494083
  62.9576993  47.8493833  18.6934083  62.2066993  48.9963833  18.7014083
  62.3416993  48.2633833  18.9454083  54.2116993  54.3213833  30.1474083
  54.7046993  54.2653833  30.8654083  54.3996993  53.5883833  29.7124083
  54.3126993  54.2043833  30.1894083  63.6496993  36.8373833   3.2881673
  63.4046993  37.3253833   2.6081673  64.5126993  36.7643833   3.1881673
  63.7406993  36.8983833   3.1731673  63.4586993  43.7533833   7.9591673
  62.9346993  44.3493833   8.3221673  63.8556993  43.3853833   8.6431673
  63.4396993  43.7873833   8.1141673  53.3276993  47.8933833   3.4151673
  52.8866993  48.0113833   4.1581673  53.0446993  47.1183833   3.1301673
  53.2206993  47.7963833   3.4831673  55.8366993  48.5893833   2.4941673
  56.4446993  48.4193833   3.0971673  55.0856993  48.4493833   2.9151673
  55.8156993  48.5433833   2.6451673  60.1186993  37.9243833   2.4431673
  60.0486993  38.6013833   1.8971673  60.8596993  37.5363833   2.1941673
  60.2176993  37.9673833   2.3251673  53.2676993  50.6283833   9.6701673
  53.3966993  50.3483833  10.4861673  52.6576993  50.0873833   9.3611673
  53.1966993  50.5073833   9.7451673  59.8416993  48.1533833  14.7371673
  59.6056993  48.1503833  15.5771673  59.0936993  48.0053833  14.3131673
  59.6956993  48.1303833  14.7981673  54.7136993  45.1493833   3.8721673
  54.2516993  44.7573833   3.2451673  55.4136993  44.6363833   3.9641673
  54.7486993  45.0163833   3.7931673  59.2216993  40.7593833   9.2191673
  59.8996993  40.7773833   8.6701673  59.1766993  39.9233833   9.4641673
  59.3146993  40.6383833   9.1741673  59.8236993  51.3453833  12.0001673
  59.9616993  52.1053833  11.5931673  60.6146993  50.9803833  12.0271673
  59.9606993  51.4043833  11.9441673  56.7146993  43.2493833   3.8951673
  57.5316993  43.0623833   4.1381673  56.2376993  42.6353833   4.2911673
  56.7646993  43.1313833   3.9901673  60.9186993  49.2303833   6.5051673
  61.2666993  48.4313833   6.5351673  61.5836993  49.7343833   6.2501673
  61.0686993  49.1863833   6.4721673  60.9756993  48.6793833   2.7161673
  61.3066993  48.0353833   3.2021673  61.2156993  48.4683833   1.9051673
  61.0596993  48.5533833   2.6681673  62.9436993  42.8103833  14.0551673
  62.0956993  42.7113833  13.8771673  62.9726993  43.5553833  14.5091673
  62.8226993  42.9063833  14.0961673  57.3116993  38.3433833   3.1611673
  57.0156993  38.8443833   2.5111673  58.1786993  38.4213833   3.1041673
  57.3956993  38.4293833   3.0571673  60.2906993  37.4853833   5.3841673
  60.3636993  38.3453833   5.5131673  60.2526993  37.4103833   4.5161673
  60.2956993  37.6013833   5.2751673  53.1696993  42.9103833   6.8851673
  52.9136993  43.7413833   6.8101673  52.5056993  42.5273833   7.3021673
  53.0336993  42.9763833   6.9361673  53.0796993  52.6203833   4.7851673
  52.4876993  53.1783833   4.4721673  53.5056993  52.3513833   4.0731673
  53.0556993  52.6623833   4.6341673  58.9196993  50.4643833   2.2651673
  58.3406993  50.1893833   2.8571673  59.5436993  49.8553833   2.2901673
  58.9266993  50.3343833   2.3561673  63.2306993  53.1443833   1.7771673
  63.4446993  53.6713833   2.4391673  63.9976993  52.9703833   1.3981673
  63.3756993  53.1963833   1.8191673  56.1986993  37.7273833   7.3761673
  55.6776993  37.0993833   7.0681673  56.7896993  37.2903833   7.8471673
  56.2096993  37.5693833   7.4001673  59.5046993  39.8603833  16.6741673
  59.6216993  39.4063833  15.9381673  59.7926993  40.6583833  16.4711673
  59.5646993  39.9113833  16.5351673  54.6246993  51.2903833   2.7161673
  55.2806993  50.7153833   2.7311673  55.0136993  52.0393833   2.4951673
  54.7796993  51.3153833   2.6861673  55.2376993  39.4573833  15.6581673
  54.4596993  39.0673833  15.5861673  55.7286993  39.0453833  15.0671673
  55.1946993  39.3383833  15.5601673  55.4426993  49.7773833   6.2161673
  55.8656993  49.4213833   5.5421673  55.7666993  49.3553833   6.9081673
  55.5526993  49.6623833   6.2191673  58.6736993  52.6293833   5.5121673
  59.5176993  52.7333833   5.3171673  58.3766993  53.4473833   5.5801673
  58.7546993  52.7653833   5.4931673  61.8866993  37.1003833  14.8261673
  62.0646993  36.2913833  14.5511673  61.7436993  37.5413833  14.0871673
  61.8916993  37.0463833  14.6761673  62.4806993  42.0263833   3.5991673
  62.7676993  41.7943833   2.8091673  63.2126993  42.1053833   4.0681673
  62.6306993  42.0033833   3.5521673  57.6716993  53.8483833  11.2521673
  57.9636993  53.7813833  12.0721673  57.0456993  53.2433833  11.2071673
  57.6226993  53.7493833  11.3671673  52.5856993  40.0053833  13.2441673
  52.5816993  40.5923833  13.8901673  53.1796993  40.3173833  12.6871673
  52.6726993  40.1383833  13.2571673  53.5226993  39.6003833   2.1591673
  53.4086993  38.7363833   2.1901673  53.0476993  39.8943833   2.8291673
  53.4356993  39.5163833   2.2621673  55.6646993  52.0103833  10.3741673
  54.9666993  51.5023833  10.5001673  55.9246993  51.8053833   9.5661673
  55.5996993  51.9053833  10.2731673  63.3756993  53.5033833  11.2841673
  64.1436993  53.4233833  10.8781673  62.7926993  53.3823833  10.6461673
  63.4026993  53.4733833  11.1301673  61.4246993  40.1163833   5.3171673
  61.4986993  40.6843833   4.6591673  61.5456993  40.6083833   6.0271673
  61.4526993  40.2733833   5.3251673  57.0256993  50.8613833  12.9411673
  57.8666993  50.9243833  12.7191673  56.9886993  51.2583833  13.7171673
  57.1446993  50.9293833  13.0231673  56.0326993  35.9393833   3.6651673
  56.5686993  36.6273833   3.6551673  56.0356993  35.6653833   2.8371673
  56.1116993  36.0003833   3.5411673  58.9886993  46.3723833   7.6901673
  59.1606993  46.1623833   8.5191673  58.3336993  45.8383833   7.4741673
  58.9176993  46.2623833   7.7811673  65.2166993  40.2863833  11.2051673
  65.1216993  40.6053833  12.0111673  64.6236993  39.6473833  11.1671673
  65.1146993  40.2383833  11.3191673  59.7386993  46.3103833  10.2801673
  59.7916993  47.1573833  10.4821673  59.4536993  45.9403833  11.0171673
  59.7046993  46.3803833  10.4181673  52.5596993  50.6813833  16.4911673
  53.3156993  51.0303833  16.7491673  52.7366993  49.8283833  16.4341673
  52.6976993  50.6063833  16.5211673  56.4806993  39.7493833   5.3191673
  56.7526993  39.3193833   4.6111673  56.3046993  39.1133833   5.8901673
  56.4946993  39.5923833   5.2991673  56.3046993  47.1763833   4.8681673
  57.1556993  47.0963833   4.6951673  55.9476993  46.4943833   4.4561673
  56.3776993  47.0633833   4.7811673  55.0716993  53.9013833   6.1051673
  54.3986993  53.4033833   5.8601673  55.4746993  54.0863833   5.3541673
  55.0316993  53.8553833   5.9581673  54.6216993  40.8513833   8.4011673
  55.4646993  41.0713833   8.3581673  54.2326993  41.4243833   7.8701673
  54.6886993  40.9683833   8.3161673  58.6726993  47.1833833   3.1031673
  59.3856993  47.6783833   3.1931673  58.8946993  46.6163833   2.4771673
  58.8106993  47.1723833   3.0241673  52.8286993  48.8263833   6.4231673
  52.1616993  49.3143833   6.6991673  53.5086993  49.3713833   6.4521673
  52.8306993  48.9783833   6.4681673  60.4756993  42.5363833  16.5191673
  59.9916993  43.1133833  16.9611673  60.4476993  42.8313833  15.6981673
  60.3996993  42.6653833  16.4631673  63.1956993  50.8863833   5.4301673
  62.6726993  51.5203833   5.1371673  63.5056993  50.5223833   4.7011673
  63.1636993  50.9263833   5.2791673  57.2706993  48.6743833   8.1901673
  57.7376993  48.9633833   8.8681673  57.8426993  48.1963833   7.7361673
  57.4246993  48.6463833   8.2231673  53.8366993  46.3443833   6.7341673
  54.2676993  46.2153833   5.9871673  53.6316993  47.1923833   6.7081673
  53.8696993  46.4503833   6.6201673  57.9206993  49.8603833   5.0161673
  58.0466993  50.7033833   5.2031673  58.5886993  49.4613833   5.4121673
  58.0386993  49.9263833   5.1021673  56.0506993  43.3433833  14.8781673
  55.5146993  42.8373833  15.3461673  56.0706993  42.9533833  14.0981673
  55.9736993  43.2103833  14.8321673  56.7026993  44.5703833   6.6171673
  55.9216993  44.5113833   6.2341673  56.7746993  43.8183833   7.0541673
  56.5976993  44.4513833   6.6251673  57.1326993  44.3073833  10.0851673
  57.1576993  43.6323833   9.5341673  56.4866993  44.8033833   9.7731673
  57.0416993  44.2803833   9.9581673  61.2326993  53.0843833   9.4771673
  60.9556993  52.4433833   8.9541673  61.0246993  53.8103833   9.0391673
  61.1616993  53.0973833   9.3351673  63.6726993  37.9263833  11.9101673
  63.8216993  37.1013833  11.6671673  64.0516993  37.9813833  12.6941673
  63.7506993  37.8123833  11.9901673  54.9316993  45.6623833  15.6441673
  54.8946993  46.1633833  14.9301673  55.2626993  44.9103833  15.3491673
  54.9746993  45.6243833  15.4951673  60.8306993  50.7123833  15.0791673
  61.1846993  50.5343833  15.8561673  60.3946993  49.9833833  14.8801673
  60.8186993  50.5783833  15.1651673  61.8026993  41.4593833   7.7171673
  62.2826993  42.1583833   7.9251673  62.1756993  40.8123833   8.1681673
  61.9286993  41.4673833   7.8141673  65.0086993  51.5643833   7.8161673
  64.4056993  51.2683833   7.2591673  65.5536993  52.0163833   7.3071673
  64.9996993  51.5873833   7.6581673  65.0216993  48.4153833   7.2161673
  64.2246993  48.6393833   7.4901673  65.2796993  47.8213833   7.8011673
  64.9416993  48.3603833   7.3431673  64.4726993  51.7623833  16.3391673
  64.6366993  52.0453833  17.1481673  64.7356993  52.4233833  15.8341673
  64.5356993  51.9023833  16.3841673  64.0126993  46.2193833  11.6621673
  63.8576993  46.8293833  12.2661673  64.5466993  45.6613833  12.0681673
  64.0686993  46.2273833  11.8111673  52.7036993  36.9383833   1.8631673
  52.8326993  36.2303833   1.3711673  52.3366993  36.6203833   2.5881673
  52.6686993  36.7863833   1.8981673  62.3966993  44.6193833   2.3201673
  62.4556993  45.2693833   2.8991673  62.2076993  43.9233833   2.8111673
  62.3776993  44.6123833   2.4781673  61.6196993  46.6663833   6.7511673
  60.7726993  46.4723833   6.8321673  61.9436993  46.5013833   7.5441673
  61.5416993  46.6133833   6.8801673  55.4676993  46.3593833   9.0671673
  56.1896993  46.8473833   9.0301673  55.1976993  46.3293833   8.2381673
  55.5346993  46.4273833   8.9391673  58.6976993  41.5303833   5.8021673
  59.5436993  41.3403833   5.9001673  58.3276993  40.7533833   5.6641673
  58.7676993  41.3873833   5.7961673  53.5186993  42.8683833   2.4571673
  54.0076993  42.5763833   3.1181673  53.6476993  42.2753833   1.8301673
  53.6096993  42.7373833   2.4621673  54.8626993  47.4113833  13.3451673
  54.4416993  46.8933833  12.7841673  54.5106993  48.1973833  13.2021673
  54.7486993  47.4513833  13.2411673  52.9786993  38.7333833   7.1891673
  53.0226993  39.0773833   6.3881673  53.7336993  38.9703833   7.5561673
  53.0966993  38.8193833   7.1251673  59.6016993  49.2223833   9.9631673
  59.3036993  49.8143833  10.5301673  59.6566993  49.6643833   9.2141673
  59.5656993  49.3753833   9.9361673  57.5806993  48.1723833  13.3611673
  56.7746993  47.8823833  13.5281673  57.4916993  49.0403833  13.3671673
  57.4486993  48.2573833  13.3861673  62.1176993  45.6453833   9.4541673
  62.5936993  46.0193833  10.0821673  61.2946993  45.7793833   9.7131673
  62.0666993  45.7203833   9.5851673  58.8276993  41.2483833  12.1951673
  58.9886993  40.5043833  12.6221673  58.7826993  40.9993833  11.3601673
  58.8446993  41.1013833  12.1351673  61.3816993  53.0383833   4.6821673
  61.9276993  53.7173833   4.7361673  61.0316993  53.1203833   3.8871673
  61.4106993  53.1513833   4.5721673  60.5796993  37.0563833  12.0751673
  61.2846993  37.3763833  11.6731673  60.8206993  36.2493833  12.3021673
  60.7186993  36.9843833  12.0491673  59.5646993  51.2663833   8.0711673
  58.9406993  51.8483833   7.8891673  59.8126993  50.9803833   7.2851673
  59.5086993  51.3103833   7.9281673  63.8736993  47.9003833  15.0601673
  64.6306993  48.1863833  14.7341673  63.3266993  47.9523833  14.3821673
  63.9046993  47.9503833  14.9111673  57.0886993  42.1093833   8.1361673
  57.5286993  42.0063833   7.3901673  57.6336993  41.7963833   8.7411673
  57.2336993  42.0483833   8.1151673  64.7926993  42.7483833  10.0261673
  65.0946993  43.1683833  10.7291673  64.8286993  41.9083833  10.2581673
  64.8426993  42.6863833  10.1641673  62.2176993  52.9153833  13.9511673
  62.6956993  52.3153833  13.5351673  61.8666993  52.4723833  14.6161673
  62.2366993  52.7613833  13.9881673  60.6356993  37.0943833   8.1831673
  59.8096993  36.9453833   8.4201673  60.5956993  37.1293833   7.3121673
  60.5076993  37.0773833   8.0891673  62.2766993  48.1343833  12.9711673
  61.4816993  48.0703833  13.3221673  62.3476993  48.9813833  12.7761673
  62.1696993  48.2493833  12.9941673  53.2006993  37.4923833  14.2181673
  53.0606993  38.2873833  13.8871673  52.4146993  37.2493833  14.5071673
  53.0636993  37.5743833  14.2121673  58.1066993  54.3413833   8.2881673
  58.1176993  54.4003833   9.1581673  57.6816993  53.5943833   8.1381673
  58.0456993  54.2393833   8.3941673  65.0216993  47.3893833   4.4871673
  65.0976993  47.7303833   5.2861673  65.1906993  46.5423833   4.6081673
  65.0576993  47.3143833   4.6231673  62.5436993  46.6633833   4.0521673
  62.2456993  46.3483833   4.8091673  63.2386993  47.1363833   4.2871673
  62.6026993  46.6863833   4.1991673  62.7656993  50.7813833  12.0791673
  63.4526993  50.6673833  12.6041673  62.8996993  51.5723833  11.7351673
  62.8866993  50.8813833  12.1061673  54.8706993  53.8393833  13.7301673
  54.2166993  53.2703833  13.8281673  54.4956993  54.6123833  13.8811673
  54.7186993  53.8693833  13.7671673  63.3886993  45.2453833  15.6531673
  63.7116993  45.9313833  15.2211673  62.6846993  45.5683833  16.0551673
  63.3316993  45.3943833  15.6481673  63.1736993  48.7093833   9.5121673
  62.4796993  49.1113833   9.8551673  63.8506993  49.1423833   9.8511673
  63.1706993  48.8323833   9.6131673  56.2416993  42.2473833  11.8591673
  56.6166993  42.8663833  11.3721673  56.9156993  41.7733833  12.1441673
  56.3966993  42.2693833  11.8291673  54.0166993  40.6953833  11.1341673
  54.0936993  40.5263833  10.2811673  54.7626993  41.1013833  11.3311673
  54.1376993  40.7303833  11.0371673  56.5706993  38.1053833  13.5451673
  56.4896993  37.2613833  13.7511673  56.2566993  38.1493833  12.7321673
  56.5126993  37.9873833  13.4551673  63.4956993  50.3003833   2.6811673
  63.2906993  51.1333833   2.5221673  62.7206993  49.9183833   2.8031673
  63.3506993  50.3673833   2.6761673  53.4136993  45.9213833  11.3581673
  53.7336993  46.1403833  10.5771673  53.3136993  45.0563833  11.3031673
  53.4456993  45.8263833  11.2351673  64.5566993  38.2813833  14.7121673
  64.6486993  38.9933833  15.2061673  63.9196993  37.8363833  15.1091673
  64.4756993  38.3203833  14.8441673  63.5506993  38.4713833   5.5661673
  62.8506993  38.9893833   5.5101673  63.5886993  38.0913833   4.7821673
  63.4526993  38.4923833   5.4421673  58.1766993  45.2133833  12.7431673
  57.7806993  45.9873833  12.8181673  57.7706993  44.8403833  12.0671673
  58.0586993  45.2723833  12.6541673  58.6056993  38.1903833  10.1931673
  57.7416993  38.2743833  10.2731673  58.8256993  37.6763833  10.8621673
  58.5106993  38.1273833  10.3041673  62.7086993  38.9383833   8.5671673
  61.9716993  38.4843833   8.6801673  63.2796993  38.5363833   9.0901673
  62.6836993  38.8113833   8.6611673  65.4406993  49.7863833  10.3551673
  65.6466993  50.0873833  11.1471673  65.3796993  50.5083833   9.8701673
  65.4616993  49.9373833  10.4001673  64.9746993  54.0003833  14.6011673
  64.2216993  53.9823833  14.1601673  65.1426993  54.8523833  14.6851673
  64.8886993  54.1233833  14.5481673  60.2116993  43.2673833  13.7711673
  59.8896993  42.6913833  13.2011673  59.8526993  44.0223833  13.5251673
  60.1116993  43.2933833  13.6511673  58.6466993  53.6233833  14.0191673
  58.6876993  53.7493833  14.8821673  59.2976993  53.0633833  13.8631673
  58.7486993  53.5593833  14.1241673  55.8256993  38.2733833  10.8411673
  55.4826993  37.5063833  10.6071673  55.1306993  38.7973833  10.9051673
  55.6726993  38.2373833  10.8161673  64.8716993  37.1293833   7.8181673
  65.5416993  37.6733833   7.9451673  64.3686993  37.5533833   7.2451673
  64.8966993  37.2723833   7.7521673  56.2396993  52.0063833  15.3791673
  56.8346993  52.4373833  15.8511673  55.8756993  52.6303833  14.8901673
  56.2736993  52.1623833  15.3761673  64.2306993  42.9373833   5.3111673
  64.7816993  42.3303833   5.6111673  63.8056993  43.2003833   6.0261673
  64.2496993  42.8863833   5.4601673  54.4786993  41.5873833   4.7971673
  54.1106993  41.8893833   5.5281673  55.0126993  40.9583833   5.0811673
  54.5026993  41.5393833   4.9471673  54.1666993  49.9953833  12.3081673
  53.5926993  50.4113833  12.8171673  54.8996993  50.4603833  12.4031673
  54.1906993  50.1253833  12.3971673  59.2586993  38.6343833  13.9271673
  59.4926993  38.0583833  13.3141673  58.4166993  38.4533833  14.0681673
  59.1686993  38.5223833  13.8571673  56.6396993  52.0773833   7.5601673
  56.5606993  51.2673833   7.2441673  56.1956993  52.5643833   6.9881673
  56.5626993  52.0293833   7.4291673  54.2116993  54.3213833  11.1411673
  54.7046993  54.2653833  11.8591673  54.3996993  53.5883833  10.7061673
  54.3126993  54.2043833  11.1831673  63.6496993  18.3592753  79.3131313
  63.4046993  18.8472753  78.6331313  64.5126993  18.2862753  79.2131313
  63.7406993  18.4202753  79.1981313  63.4586993  25.2752753  83.9841313
  62.9346993  25.8712753  84.3471313  63.8556993  24.9072753  84.6681313
  63.4396993  25.3092753  84.1391313  53.3276993  29.4152753  79.4401313
  52.8866993  29.5332753  80.1831313  53.0446993  28.6402753  79.1551313
  53.2206993  29.3182753  79.5081313  53.0706993  23.2072753  75.9471313
  52.2926993  23.3692753  75.5871313  53.1096993  22.3362753  75.9691313
  52.9616993  23.1022753  75.8971313  56.2096993  28.4702753  74.6191313
  55.8176993  28.0992753  73.9331313  56.1296993  27.8722753  75.2481313
  56.1396993  28.3272753  74.6101313  55.8366993  30.1112753  78.5191313
  56.4446993  29.9412753  79.1221313  55.0856993  29.9712753  78.9401313
  55.8156993  30.0652753  78.6701313  60.1186993  19.4462753  78.4681313
  60.0486993  20.1232753  77.9221313  60.8596993  19.0582753  78.2191313
  60.2176993  19.4892753  78.3501313  54.7276993  33.2022753  74.5961313
  55.1946993  33.2862753  73.8641313  55.1826993  32.6242753  75.0651313
  54.8636993  33.1292753  74.5571313  53.2676993  32.1502753  85.6951313
  53.3966993  31.8702753  86.5111313  52.6576993  31.6092753  85.3861313
  53.1966993  32.0292753  85.7701313  54.7136993  26.6712753  79.8971313
  54.2516993  26.2792753  79.2701313  55.4136993  26.1582753  79.9891313
  54.7486993  26.5382753  79.8181313  59.2216993  22.2812753  85.2441313
  59.8996993  22.2992753  84.6951313  59.1766993  21.4452753  85.4891313
  59.3146993  22.1602753  85.1991313  59.8236993  32.8672753  88.0251313
  59.9616993  33.6272753  87.6181313  60.6146993  32.5022753  88.0521313
  59.9606993  32.9262753  87.9691313  56.7146993  24.7712753  79.9201313
  57.5316993  24.5842753  80.1631313  56.2376993  24.1572753  80.3161313
  56.7646993  24.6532753  80.0151313  60.9186993  30.7522753  82.5301313
  61.2666993  29.9532753  82.5601313  61.5836993  31.2562753  82.2751313
  61.0686993  30.7082753  82.4971313  60.9756993  30.2012753  78.7411313
  61.3066993  29.5572753  79.2271313  61.2156993  29.9902753  77.9301313
  61.0596993  30.0752753  78.6931313  57.3116993  19.8652753  79.1861313
  57.0156993  20.3662753  78.5361313  58.1786993  19.9432753  79.1291313
  57.3956993  19.9512753  79.0821313  60.2906993  19.0072753  81.4091313
  60.3636993  19.8672753  81.5381313  60.2526993  18.9322753  80.5411313
  60.2956993  19.1232753  81.3001313  64.9636993  21.9332753  73.7081313
  64.5136993  22.6142753  74.0151313  65.0776993  21.4292753  74.4111313
  64.9146993  21.9592753  73.8571313  53.1696993  24.4322753  82.9101313
  52.9136993  25.2632753  82.8351313  52.5056993  24.0492753  83.3271313
  53.0336993  24.4982753  82.9611313  53.0796993  34.1422753  80.8101313
  52.4876993  34.7002753  80.4971313  53.5056993  33.8732753  80.0981313
  53.0556993  34.1842753  80.6591313  58.9196993  31.9862753  78.2901313
  58.3406993  31.7112753  78.8821313  59.5436993  31.3772753  78.3151313
  58.9266993  31.8562753  78.3811313  63.2306993  34.6662753  77.8021313
  63.4446993  35.1932753  78.4641313  63.9976993  34.4922753  77.4231313
  63.3756993  34.7182753  77.8441313  56.1986993  19.2492753  83.4011313
  55.6776993  18.6212753  83.0931313  56.7896993  18.8122753  83.8721313
  56.2096993  19.0912753  83.4251313  54.6246993  32.8122753  78.7411313
  55.2806993  32.2372753  78.7561313  55.0136993  33.5612753  78.5201313
  54.7796993  32.8372753  78.7111313  55.4426993  31.2992753  82.2411313
  55.8656993  30.9432753  81.5671313  55.7666993  30.8772753  82.9331313
  55.5526993  31.1842753  82.2441313  58.6736993  34.1512753  81.5371313
  59.5176993  34.2552753  81.3421313  58.3766993  34.9692753  81.6051313
  58.7546993  34.2872753  81.5181313  62.4806993  23.5482753  79.6241313
  62.7676993  23.3162753  78.8341313  63.2126993  23.6272753  80.0931313
  62.6306993  23.5252753  79.5771313  63.2026993  23.8872753  74.7451313
  63.4836993  24.6752753  74.9941313  62.4266993  24.0522753  74.3821313
  63.1296993  24.0282753  74.7281313  57.6716993  35.3702753  87.2771313
  57.9636993  35.3032753  88.0971313  57.0456993  34.7652753  87.2321313
  57.6226993  35.2712753  87.3921313  62.0616993  32.0582753  74.5611313
  61.8806993  32.6032753  75.2181313  62.8276993  32.3482753  74.2601313
  62.1476993  32.1822753  74.6141313  53.5226993  21.1222753  78.1841313
  53.4086993  20.2582753  78.2151313  53.0476993  21.4162753  78.8541313
  53.4356993  21.0382753  78.2871313  55.6646993  33.5322753  86.3991313
  54.9666993  33.0242753  86.5251313  55.9246993  33.3272753  85.5911313
  55.5996993  33.4272753  86.2981313  62.8266993  22.3302753  76.9291313
  62.3186993  21.6682753  76.6751313  62.8786993  22.8342753  76.2191313
  62.7596993  22.3072753  76.7871313  63.3756993  35.0252753  87.3091313
  64.1436993  34.9452753  86.9031313  62.7926993  34.9042753  86.6711313
  63.4026993  34.9952753  87.1551313  62.8266993  19.2712753  76.8201313
  62.3716993  18.8692753  76.1941313  63.5996993  19.4262753  76.4451313
  62.8736993  19.2352753  76.6721313  61.4246993  21.6382753  81.3421313
  61.4986993  22.2062753  80.6841313  61.5456993  22.1302753  82.0521313
  61.4526993  21.7952753  81.3501313  56.0326993  17.4612753  79.6901313
  56.5686993  18.1492753  79.6801313  56.0356993  17.1872753  78.8621313
  56.1116993  17.5222753  79.5661313  58.9886993  27.8942753  83.7151313
  59.1606993  27.6842753  84.5441313  58.3336993  27.3602753  83.4991313
  58.9176993  27.7842753  83.8061313  65.2166993  21.8082753  87.2301313
  65.1216993  22.1272753  88.0361313  64.6236993  21.1692753  87.1921313
  65.1146993  21.7602753  87.3441313  59.7386993  27.8322753  86.3051313
  59.7916993  28.6792753  86.5071313  59.4536993  27.4622753  87.0421313
  59.7046993  27.9022753  86.4431313  56.4806993  21.2712753  81.3441313
  56.7526993  20.8412753  80.6361313  56.3046993  20.6352753  81.9151313
  56.4946993  21.1142753  81.3241313  56.3046993  28.6982753  80.8931313
  57.1556993  28.6182753  80.7201313  55.9476993  28.0162753  80.4811313
  56.3776993  28.5852753  80.8061313  55.0716993  35.4232753  82.1301313
  54.3986993  34.9252753  81.8851313  55.4746993  35.6082753  81.3791313
  55.0316993  35.3772753  81.9831313  54.6216993  22.3732753  84.4261313
  55.4646993  22.5932753  84.3831313  54.2326993  22.9462753  83.8951313
  54.6886993  22.4902753  84.3411313  58.6726993  28.7052753  79.1281313
  59.3856993  29.2002753  79.2181313  58.8946993  28.1382753  78.5021313
  58.8106993  28.6942753  79.0491313  52.8286993  30.3482753  82.4481313
  52.1616993  30.8362753  82.7241313  53.5086993  30.8932753  82.4771313
  52.8306993  30.5002753  82.4931313  52.8946993  27.0322753  77.5511313
  52.7096993  26.1932753  77.7031313  53.5536993  26.9962753  76.9811313
  52.9646993  26.9032753  77.4891313  63.1956993  32.4082753  81.4551313
  62.6726993  33.0422753  81.1621313  63.5056993  32.0442753  80.7261313
  63.1636993  32.4482753  81.3041313  53.0666993  31.1962753  77.1261313
  53.6186993  31.7652753  77.4901313  52.8346993  30.6812753  77.7911313
  53.1136993  31.2042753  77.2781313  57.2706993  30.1962753  84.2151313
  57.7376993  30.4852753  84.8931313  57.8426993  29.7182753  83.7611313
  57.4246993  30.1682753  84.2481313  52.8966993  29.6452753  74.7541313
  53.6526993  29.2132753  74.8121313  52.9116993  30.1772753  75.4451313
  53.0106993  29.6602753  74.8651313  53.8366993  27.8662753  82.7591313
  54.2676993  27.7372753  82.0121313  53.6316993  28.7142753  82.7331313
  53.8696993  27.9722753  82.6451313  60.1826993  21.4302753  76.4091313
  60.1806993  21.3132753  75.5441313  60.0016993  22.2782753  76.5011313
  60.1556993  21.5382753  76.2951313  57.9206993  31.3822753  81.0411313
  58.0466993  32.2252753  81.2281313  58.5886993  30.9832753  81.4371313
  58.0386993  31.4482753  81.1271313  56.5356993  24.2622753  76.0431313
  56.4076993  23.8142753  76.7811313  55.9536993  23.9202753  75.4911313
  56.4306993  24.1452753  76.0711313  56.7026993  26.0922753  82.6421313
  55.9216993  26.0332753  82.2591313  56.7746993  25.3402753  83.0791313
  56.5976993  25.9732753  82.6501313  57.1326993  25.8292753  86.1101313
  57.1576993  25.1542753  85.5591313  56.4866993  26.3252753  85.7981313
  57.0416993  25.8022753  85.9831313  61.2326993  34.6062753  85.5021313
  60.9556993  33.9652753  84.9791313  61.0246993  35.3322753  85.0641313
  61.1616993  34.6192753  85.3601313  63.6726993  19.4482753  87.9351313
  63.8216993  18.6232753  87.6921313  64.0516993  19.5032753  88.7191313
  63.7506993  19.3342753  88.0151313  61.8026993  22.9812753  83.7421313
  62.2826993  23.6802753  83.9501313  62.1756993  22.3342753  84.1931313
  61.9286993  22.9892753  83.8391313  63.9916993  26.1502753  76.0161313
  63.9836993  26.8722753  75.5261313  63.3526993  26.2852753  76.5931313
  63.8966993  26.2772753  76.0291313  65.0086993  33.0862753  83.8411313
  64.4056993  32.7902753  83.2841313  65.5536993  33.5382753  83.3321313
  64.9996993  33.1092753  83.6831313  65.0216993  29.9372753  83.2411313
  64.2246993  30.1612753  83.5151313  65.2796993  29.3432753  83.8261313
  64.9416993  29.8822753  83.3681313  58.9136993  34.7492753  77.6891313
  58.7666993  33.9732753  78.0601313  59.6026993  34.6022753  77.1741313
  58.9936993  34.6122753  77.6681313  58.5846993  18.4922753  75.6771313
  58.6816993  18.3852753  76.5381313  57.8766993  18.9982753  75.6121313
  58.4946993  18.5512753  75.7951313  61.2056993  34.2652753  76.0911313
  61.8276993  34.4282753  76.6811313  61.2416993  34.9562753  75.5591313
  61.3026993  34.3912753  76.1001313  55.7066993  26.7992753  76.9201313
  56.0306993  26.0202753  76.6981313  56.3526993  27.1672753  77.3751313
  55.8496993  26.7382753  76.9541313  64.0126993  27.7412753  87.6871313
  63.8576993  28.3512753  88.2911313  64.5466993  27.1832753  88.0931313
  64.0686993  27.7492753  87.8361313  52.7036993  18.4602753  77.8881313
  52.8326993  17.7522753  77.3961313  52.3366993  18.1422753  78.6131313
  52.6686993  18.3082753  77.9231313  62.3966993  26.1412753  78.3451313
  62.4556993  26.7912753  78.9241313  62.2076993  25.4452753  78.8361313
  62.3776993  26.1342753  78.5031313  56.8926993  20.6582753  74.8571313
  56.3816993  20.7112753  74.1511313  57.6766993  20.8982753  74.5611313
  56.9326993  20.7012753  74.7091313  61.6196993  28.1882753  82.7761313
  60.7726993  27.9942753  82.8571313  61.9436993  28.0232753  83.5691313
  61.5416993  28.1352753  82.9051313  58.3716993  34.9182753  73.6621313
  58.8106993  34.2212753  73.9501313  58.5786993  35.5422753  74.2351313
  58.4676993  34.9072753  73.7891313  55.4676993  27.8812753  85.0921313
  56.1896993  28.3692753  85.0551313  55.1976993  27.8512753  84.2631313
  55.5346993  27.9492753  84.9641313  58.6976993  23.0522753  81.8271313
  59.5436993  22.8622753  81.9251313  58.3276993  22.2752753  81.6891313
  58.7676993  22.9092753  81.8211313  53.5186993  24.3902753  78.4821313
  54.0076993  24.0982753  79.1431313  53.6476993  23.7972753  77.8551313
  53.6096993  24.2592753  78.4871313  58.0436993  25.8242753  73.9681313
  57.4336993  25.4192753  74.4421313  57.6576993  25.9422753  73.1951313
  57.8966993  25.7812753  73.9241313  59.4986993  24.2852753  76.6781313
  59.7706993  25.1112753  76.7451313  58.6356993  24.3602753  76.5821313
  59.4116993  24.4182753  76.6731313  52.9786993  20.2552753  83.2141313
  53.0226993  20.5992753  82.4131313  53.7336993  20.4922753  83.5811313
  53.0966993  20.3412753  83.1501313  64.9196993  29.5942753  74.6841313
  65.6036993  29.0802753  74.5151313  64.5026993  29.6402753  73.9191313
  64.9586993  29.5252753  74.5461313  59.6016993  30.7442753  85.9881313
  59.3036993  31.3362753  86.5551313  59.6566993  31.1862753  85.2391313
  59.5656993  30.8972753  85.9611313  62.1176993  27.1672753  85.4791313
  62.5936993  27.5412753  86.1071313  61.2946993  27.3012753  85.7381313
  62.0666993  27.2422753  85.6101313  58.8276993  22.7702753  88.2201313
  58.9886993  22.0262753  88.6471313  58.7826993  22.5212753  87.3851313
  58.8446993  22.6232753  88.1601313  61.3816993  34.5602753  80.7071313
  61.9276993  35.2392753  80.7611313  61.0316993  34.6422753  79.9121313
  61.4106993  34.6732753  80.5971313  60.5796993  18.5782753  88.1001313
  61.2846993  18.8982753  87.6981313  60.8206993  17.7712753  88.3271313
  60.7186993  18.5062753  88.0741313  59.5646993  32.7882753  84.0961313
  58.9406993  33.3702753  83.9141313  59.8126993  32.5022753  83.3101313
  59.5086993  32.8322753  83.9531313  61.1586993  27.5642753  74.0111313
  60.3536993  27.3872753  73.7261313  61.1256993  28.4152753  74.2031313
  61.0346993  27.6632753  73.9981313  57.0886993  23.6312753  84.1611313
  57.5286993  23.5282753  83.4151313  57.6336993  23.3182753  84.7661313
  57.2336993  23.5702753  84.1401313  64.7926993  24.2702753  86.0511313
  65.0946993  24.6902753  86.7541313  64.8286993  23.4302753  86.2831313
  64.8426993  24.2082753  86.1891313  60.6356993  18.6162753  84.2081313
  59.8096993  18.4672753  84.4451313  60.5956993  18.6512753  83.3371313
  60.5076993  18.5992753  84.1141313  58.1066993  35.8632753  84.3131313
  58.1176993  35.9222753  85.1831313  57.6816993  35.1162753  84.1631313
  58.0456993  35.7612753  84.4191313  56.2646993  21.7582753  77.4681313
  56.3906993  21.4292753  76.6701313  55.4526993  21.5092753  77.6671313
  56.1636993  21.6732753  77.3801313  65.0216993  28.9112753  80.5121313
  65.0976993  29.2522753  81.3111313  65.1906993  28.0642753  80.6331313
  65.0576993  28.8362753  80.6481313  62.5436993  28.1852753  80.0771313
  62.2456993  27.8702753  80.8341313  63.2386993  28.6582753  80.3121313
  62.6026993  28.2082753  80.2241313  62.7656993  32.3032753  88.1041313
  63.4526993  32.1892753  88.6291313  62.8996993  33.0942753  87.7601313
  62.8866993  32.4032753  88.1311313  63.1736993  30.2312753  85.5371313
  62.4796993  30.6332753  85.8801313  63.8506993  30.6642753  85.8761313
  63.1706993  30.3542753  85.6381313  56.2416993  23.7692753  87.8841313
  56.6166993  24.3882753  87.3971313  56.9156993  23.2952753  88.1691313
  56.3966993  23.7912753  87.8541313  54.0166993  22.2172753  87.1591313
  54.0936993  22.0482753  86.3061313  54.7626993  22.6232753  87.3561313
  54.1376993  22.2522753  87.0621313  63.4956993  31.8222753  78.7061313
  63.2906993  32.6552753  78.5471313  62.7206993  31.4402753  78.8281313
  63.3506993  31.8892753  78.7011313  53.4136993  27.4432753  87.3831313
  53.7336993  27.6622753  86.6021313  53.3136993  26.5782753  87.3281313
  53.4456993  27.3482753  87.2601313  54.8696993  23.3792753  74.0011313
  54.1976993  23.3932753  74.5571313  54.9646993  22.5312753  73.8171313
  54.7846993  23.2562753  74.0561313  63.5506993  19.9932753  81.5911313
  62.8506993  20.5112753  81.5351313  63.5886993  19.6132753  80.8071313
  63.4526993  20.0142753  81.4671313  58.8576993  32.0842753  75.1151313
  59.2986993  32.1642753  75.8631313  58.0526993  31.8682753  75.3731313
  58.8036993  32.0642753  75.2641313  58.1766993  26.7352753  88.7681313
  57.7806993  27.5092753  88.8431313  57.7706993  26.3622753  88.0921313
  58.0586993  26.7942753  88.6791313  56.1866993  31.1542753  75.7161313
  55.9426993  30.8472753  76.4961313  56.1536993  30.4512753  75.2001313
  56.1456993  31.0052753  75.7551313  59.0056993  29.3992753  74.4591313
  58.1876993  29.1312753  74.5991313  58.9776993  30.2512753  74.6441313
  58.8806993  29.4862753  74.5071313  58.6056993  19.7122753  86.2181313
  57.7416993  19.7962753  86.2981313  58.8256993  19.1982753  86.8871313
  58.5106993  19.6492753  86.3291313  62.7086993  20.4602753  84.5921313
  61.9716993  20.0062753  84.7051313  63.2796993  20.0582753  85.1151313
  62.6836993  20.3332753  84.6861313  65.4406993  31.3082753  86.3801313
  65.6466993  31.6092753  87.1721313  65.3796993  32.0302753  85.8951313
  65.4616993  31.4592753  86.4251313  61.0076993  18.0412753  74.4231313
  61.0856993  18.2882753  73.5901313  60.2646993  18.4182753  74.6811313
  60.9096993  18.1332753  74.3381313  55.8256993  19.7952753  86.8661313
  55.4826993  19.0282753  86.6321313  55.1306993  20.3192753  86.9301313
  55.6726993  19.7592753  86.8411313  64.8716993  18.6512753  83.8431313
  65.5416993  19.1952753  83.9701313  64.3686993  19.0752753  83.2701313
  64.8966993  18.7942753  83.7771313  64.2306993  24.4592753  81.3361313
  64.7816993  23.8522753  81.6361313  63.8056993  24.7222753  82.0511313
  64.2496993  24.4082753  81.4851313  54.4786993  23.1092753  80.8221313
  54.1106993  23.4112753  81.5531313  55.0126993  22.4802753  81.1061313
  54.5026993  23.0612753  80.9721313  54.1666993  31.5172753  88.3331313
  53.5926993  31.9332753  88.8421313  54.8996993  31.9822753  88.4281313
  54.1906993  31.6472753  88.4221313  55.9526993  34.7842753  77.1081313
  55.8076993  34.9402753  76.2621313  56.8186993  34.8632753  77.1861313
  56.0596993  34.8192753  76.9951313  60.1196993  27.1812753  76.8361313
  60.2196993  27.3202753  75.9811313  60.9376993  27.1212753  77.1321313
  60.2546993  27.1922753  76.7531313  65.3546993  31.5102753  76.6381313
  65.1036993  31.3822753  77.4641313  65.0376993  30.8152753  76.2171313
  65.2706993  31.3892753  76.6981313  56.6396993  33.5992753  83.5851313
  56.5606993  32.7892753  83.2691313  56.1956993  34.0862753  83.0131313
  56.5626993  33.5512753  83.4541313  62.2406993  29.7182753  76.0681313
  62.9576993  29.3712753  75.7121313  62.2066993  30.5182753  75.7201313
  62.3416993  29.7852753  75.9641313  54.2116993  35.8432753  87.1661313
  54.7046993  35.7872753  87.8841313  54.3996993  35.1102753  86.7311313
  54.3126993  35.7262753  87.2081313  63.6496993  18.3592753  60.3068903
  63.4046993  18.8472753  59.6268903  64.5126993  18.2862753  60.2068903
  63.7406993  18.4202753  60.1918903  63.4586993  25.2752753  64.9778903
  62.9346993  25.8712753  65.3408903  63.8556993  24.9072753  65.6618903
  63.4396993  25.3092753  65.1328903  53.3276993  29.4152753  60.4338903
  52.8866993  29.5332753  61.1768903  53.0446993  28.6402753  60.1488903
  53.2206993  29.3182753  60.5018903  53.0706993  23.2072753  56.9408903
  52.2926993  23.3692753  56.5808903  53.1096993  22.3362753  56.9628903
  52.9616993  23.1022753  56.8908903  56.2096993  28.4702753  55.6128903
  55.8176993  28.0992753  54.9268903  56.1296993  27.8722753  56.2418903
  56.1396993  28.3272753  55.6038903  55.8366993  30.1112753  59.5128903
  56.4446993  29.9412753  60.1158903  55.0856993  29.9712753  59.9338903
  55.8156993  30.0652753  59.6638903  60.1186993  19.4462753  59.4618903
  60.0486993  20.1232753  58.9158903  60.8596993  19.0582753  59.2128903
  60.2176993  19.4892753  59.3438903  54.7276993  33.2022753  55.5898903
  55.1946993  33.2862753  54.8578903  55.1826993  32.6242753  56.0588903
  54.8636993  33.1292753  55.5508903  59.8416993  29.6752753  71.7558903
  59.6056993  29.6722753  72.5958903  59.0936993  29.5272753  71.3318903
  59.6956993  29.6522753  71.8168903  54.7136993  26.6712753  60.8908903
  54.2516993  26.2792753  60.2638903  55.4136993  26.1582753  60.9828903
  54.7486993  26.5382753  60.8118903  59.2216993  22.2812753  66.2378903
  59.8996993  22.2992753  65.6888903  59.1766993  21.4452753  66.4828903
  59.3146993  22.1602753  66.1928903  59.8236993  32.8672753  69.0188903
  59.9616993  33.6272753  68.6118903  60.6146993  32.5022753  69.0458903
  59.9606993  32.9262753  68.9628903  56.7146993  24.7712753  60.9138903
  57.5316993  24.5842753  61.1568903  56.2376993  24.1572753  61.3098903
  56.7646993  24.6532753  61.0088903  60.9186993  30.7522753  63.5238903
  61.2666993  29.9532753  63.5538903  61.5836993  31.2562753  63.2688903
  61.0686993  30.7082753  63.4908903  60.9756993  30.2012753  59.7348903
  61.3066993  29.5572753  60.2208903  61.2156993  29.9902753  58.9238903
  61.0596993  30.0752753  59.6868903  62.9436993  24.3322753  71.0738903
  62.0956993  24.2332753  70.8958903  62.9726993  25.0772753  71.5278903
  62.8226993  24.4282753  71.1148903  57.3116993  19.8652753  60.1798903
  57.0156993  20.3662753  59.5298903  58.1786993  19.9432753  60.1228903
  57.3956993  19.9512753  60.0758903  60.2906993  19.0072753  62.4028903
  60.3636993  19.8672753  62.5318903  60.2526993  18.9322753  61.5348903
  60.2956993  19.1232753  62.2938903  64.9636993  21.9332753  54.7018903
  64.5136993  22.6142753  55.0088903  65.0776993  21.4292753  55.4048903
  64.9146993  21.9592753  54.8508903  53.1696993  24.4322753  63.9038903
  52.9136993  25.2632753  63.8288903  52.5056993  24.0492753  64.3208903
  53.0336993  24.4982753  63.9548903  53.0796993  34.1422753  61.8038903
  52.4876993  34.7002753  61.4908903  53.5056993  33.8732753  61.0918903
  53.0556993  34.1842753  61.6528903  58.9196993  31.9862753  59.2838903
  58.3406993  31.7112753  59.8758903  59.5436993  31.3772753  59.3088903
  58.9266993  31.8562753  59.3748903  63.2306993  34.6662753  58.7958903
  63.4446993  35.1932753  59.4578903  63.9976993  34.4922753  58.4168903
  63.3756993  34.7182753  58.8378903  56.1986993  19.2492753  64.3948903
  55.6776993  18.6212753  64.0868903  56.7896993  18.8122753  64.8658903
  56.2096993  19.0912753  64.4188903  59.5046993  21.3822753  73.6928903
  59.6216993  20.9282753  72.9568903  59.7926993  22.1802753  73.4898903
  59.5646993  21.4332753  73.5538903  54.6246993  32.8122753  59.7348903
  55.2806993  32.2372753  59.7498903  55.0136993  33.5612753  59.5138903
  54.7796993  32.8372753  59.7048903  55.2376993  20.9792753  72.6768903
  54.4596993  20.5892753  72.6048903  55.7286993  20.5672753  72.0858903
  55.1946993  20.8602753  72.5788903  55.4426993  31.2992753  63.2348903
  55.8656993  30.9432753  62.5608903  55.7666993  30.8772753  63.9268903
  55.5526993  31.1842753  63.2378903  58.6736993  34.1512753  62.5308903
  59.5176993  34.2552753  62.3358903  58.3766993  34.9692753  62.5988903
  58.7546993  34.2872753  62.5118903  61.8866993  18.6222753  71.8448903
  62.0646993  17.8132753  71.5698903  61.7436993  19.0632753  71.1058903
  61.8916993  18.5682753  71.6948903  62.4806993  23.5482753  60.6178903
  62.7676993  23.3162753  59.8278903  63.2126993  23.6272753  61.0868903
  62.6306993  23.5252753  60.5708903  63.2026993  23.8872753  55.7388903
  63.4836993  24.6752753  55.9878903  62.4266993  24.0522753  55.3758903
  63.1296993  24.0282753  55.7218903  57.6716993  35.3702753  68.2708903
  57.9636993  35.3032753  69.0908903  57.0456993  34.7652753  68.2258903
  57.6226993  35.2712753  68.3858903  52.5856993  21.5272753  70.2628903
  52.5816993  22.1142753  70.9088903  53.1796993  21.8392753  69.7058903
  52.6726993  21.6602753  70.2758903  62.0616993  32.0582753  55.5548903
  61.8806993  32.6032753  56.2118903  62.8276993  32.3482753  55.2538903
  62.1476993  32.1822753  55.6078903  53.5226993  21.1222753  59.1778903
  53.4086993  20.2582753  59.2088903  53.0476993  21.4162753  59.8478903
  53.4356993  21.0382753  59.2808903  55.6646993  33.5322753  67.3928903
  54.9666993  33.0242753  67.5188903  55.9246993  33.3272753  66.5848903
  55.5996993  33.4272753  67.2918903  62.8266993  22.3302753  57.9228903
  62.3186993  21.6682753  57.6688903  62.8786993  22.8342753  57.2128903
  62.7596993  22.3072753  57.7808903  63.3756993  35.0252753  68.3028903
  64.1436993  34.9452753  67.8968903  62.7926993  34.9042753  67.6648903
  63.4026993  34.9952753  68.1488903  62.8266993  19.2712753  57.8138903
  62.3716993  18.8692753  57.1878903  63.5996993  19.4262753  57.4388903
  62.8736993  19.2352753  57.6658903  61.4246993  21.6382753  62.3358903
  61.4986993  22.2062753  61.6778903  61.5456993  22.1302753  63.0458903
  61.4526993  21.7952753  62.3438903  57.0256993  32.3832753  69.9598903
  57.8666993  32.4462753  69.7378903  56.9886993  32.7802753  70.7358903
  57.1446993  32.4512753  70.0418903  56.0326993  17.4612753  60.6838903
  56.5686993  18.1492753  60.6738903  56.0356993  17.1872753  59.8558903
  56.1116993  17.5222753  60.5598903  58.9886993  27.8942753  64.7088903
  59.1606993  27.6842753  65.5378903  58.3336993  27.3602753  64.4928903
  58.9176993  27.7842753  64.7998903  65.2166993  21.8082753  68.2238903
  65.1216993  22.1272753  69.0298903  64.6236993  21.1692753  68.1858903
  65.1146993  21.7602753  68.3378903  59.7386993  27.8322753  67.2988903
  59.7916993  28.6792753  67.5008903  59.4536993  27.4622753  68.0358903
  59.7046993  27.9022753  67.4368903  52.5596993  32.2032753  73.5098903
  53.3156993  32.5522753  73.7678903  52.7366993  31.3502753  73.4528903
  52.6976993  32.1282753  73.5398903  56.4806993  21.2712753  62.3378903
  56.7526993  20.8412753  61.6298903  56.3046993  20.6352753  62.9088903
  56.4946993  21.1142753  62.3178903  56.3046993  28.6982753  61.8868903
  57.1556993  28.6182753  61.7138903  55.9476993  28.0162753  61.4748903
  56.3776993  28.5852753  61.7998903  55.0716993  35.4232753  63.1238903
  54.3986993  34.9252753  62.8788903  55.4746993  35.6082753  62.3728903
  55.0316993  35.3772753  62.9768903  54.6216993  22.3732753  65.4198903
  55.4646993  22.5932753  65.3768903  54.2326993  22.9462753  64.8888903
  54.6886993  22.4902753  65.3348903  58.6726993  28.7052753  60.1218903
  59.3856993  29.2002753  60.2118903  58.8946993  28.1382753  59.4958903
  58.8106993  28.6942753  60.0428903  52.8286993  30.3482753  63.4418903
  52.1616993  30.8362753  63.7178903  53.5086993  30.8932753  63.4708903
  52.8306993  30.5002753  63.4868903  60.4756993  24.0582753  73.5378903
  59.9916993  24.6352753  73.9798903  60.4476993  24.3532753  72.7168903
  60.3996993  24.1872753  73.4818903  52.8946993  27.0322753  58.5448903
  52.7096993  26.1932753  58.6968903  53.5536993  26.9962753  57.9748903
  52.9646993  26.9032753  58.4828903  63.1956993  32.4082753  62.4488903
  62.6726993  33.0422753  62.1558903  63.5056993  32.0442753  61.7198903
  63.1636993  32.4482753  62.2978903  53.0666993  31.1962753  58.1198903
  53.6186993  31.7652753  58.4838903  52.8346993  30.6812753  58.7848903
  53.1136993  31.2042753  58.2718903  57.2706993  30.1962753  65.2088903
  57.7376993  30.4852753  65.8868903  57.8426993  29.7182753  64.7548903
  57.4246993  30.1682753  65.2418903  52.8966993  29.6452753  55.7478903
  53.6526993  29.2132753  55.8058903  52.9116993  30.1772753  56.4388903
  53.0106993  29.6602753  55.8588903  53.8366993  27.8662753  63.7528903
  54.2676993  27.7372753  63.0058903  53.6316993  28.7142753  63.7268903
  53.8696993  27.9722753  63.6388903  60.1826993  21.4302753  57.4028903
  60.1806993  21.3132753  56.5378903  60.0016993  22.2782753  57.4948903
  60.1556993  21.5382753  57.2888903  57.9206993  31.3822753  62.0348903
  58.0466993  32.2252753  62.2218903  58.5886993  30.9832753  62.4308903
  58.0386993  31.4482753  62.1208903  56.0506993  24.8652753  71.8968903
  55.5146993  24.3592753  72.3648903  56.0706993  24.4752753  71.1168903
  55.9736993  24.7322753  71.8508903  56.5356993  24.2622753  57.0368903
  56.4076993  23.8142753  57.7748903  55.9536993  23.9202753  56.4848903
  56.4306993  24.1452753  57.0648903  56.7026993  26.0922753  63.6358903
  55.9216993  26.0332753  63.2528903  56.7746993  25.3402753  64.0728903
  56.5976993  25.9732753  63.6438903  57.1326993  25.8292753  67.1038903
  57.1576993  25.1542753  66.5528903  56.4866993  26.3252753  66.7918903
  57.0416993  25.8022753  66.9768903  61.2326993  34.6062753  66.4958903
  60.9556993  33.9652753  65.9728903  61.0246993  35.3322753  66.0578903
  61.1616993  34.6192753  66.3538903  63.6726993  19.4482753  68.9288903
  63.8216993  18.6232753  68.6858903  64.0516993  19.5032753  69.7128903
  63.7506993  19.3342753  69.0088903  54.9316993  27.1842753  72.6628903
  54.8946993  27.6852753  71.9488903  55.2626993  26.4322753  72.3678903
  54.9746993  27.1462753  72.5138903  60.8306993  32.2342753  72.0978903
  61.1846993  32.0562753  72.8748903  60.3946993  31.5052753  71.8988903
  60.8186993  32.1002753  72.1838903  61.8026993  22.9812753  64.7358903
  62.2826993  23.6802753  64.9438903  62.1756993  22.3342753  65.1868903
  61.9286993  22.9892753  64.8328903  63.9916993  26.1502753  57.0098903
  63.9836993  26.8722753  56.5198903  63.3526993  26.2852753  57.5868903
  63.8966993  26.2772753  57.0228903  65.0086993  33.0862753  64.8348903
  64.4056993  32.7902753  64.2778903  65.5536993  33.5382753  64.3258903
  64.9996993  33.1092753  64.6768903  65.0216993  29.9372753  64.2348903
  64.2246993  30.1612753  64.5088903  65.2796993  29.3432753  64.8198903
  64.9416993  29.8822753  64.3618903  58.9136993  34.7492753  58.6828903
  58.7666993  33.9732753  59.0538903  59.6026993  34.6022753  58.1678903
  58.9936993  34.6122753  58.6618903  58.5846993  18.4922753  56.6708903
  58.6816993  18.3852753  57.5318903  57.8766993  18.9982753  56.6058903
  58.4946993  18.5512753  56.7888903  61.2056993  34.2652753  57.0848903
  61.8276993  34.4282753  57.6748903  61.2416993  34.9562753  56.5528903
  61.3026993  34.3912753  57.0938903  64.4726993  33.2842753  73.3578903
  64.6366993  33.5672753  74.1668903  64.7356993  33.9452753  72.8528903
  64.5356993  33.4242753  73.4028903  55.7066993  26.7992753  57.9138903
  56.0306993  26.0202753  57.6918903  56.3526993  27.1672753  58.3688903
  55.8496993  26.7382753  57.9478903  64.0126993  27.7412753  68.6808903
  63.8576993  28.3512753  69.2848903  64.5466993  27.1832753  69.0868903
  64.0686993  27.7492753  68.8298903  52.7036993  18.4602753  58.8818903
  52.8326993  17.7522753  58.3898903  52.3366993  18.1422753  59.6068903
  52.6686993  18.3082753  58.9168903  62.3966993  26.1412753  59.3388903
  62.4556993  26.7912753  59.9178903  62.2076993  25.4452753  59.8298903
  62.3776993  26.1342753  59.4968903  56.8926993  20.6582753  55.8508903
  56.3816993  20.7112753  55.1448903  57.6766993  20.8982753  55.5548903
  56.9326993  20.7012753  55.7028903  61.6196993  28.1882753  63.7698903
  60.7726993  27.9942753  63.8508903  61.9436993  28.0232753  64.5628903
  61.5416993  28.1352753  63.8988903  58.3716993  34.9182753  54.6558903
  58.8106993  34.2212753  54.9438903  58.5786993  35.5422753  55.2288903
  58.4676993  34.9072753  54.7828903  55.4676993  27.8812753  66.0858903
  56.1896993  28.3692753  66.0488903  55.1976993  27.8512753  65.2568903
  55.5346993  27.9492753  65.9578903  58.6976993  23.0522753  62.8208903
  59.5436993  22.8622753  62.9188903  58.3276993  22.2752753  62.6828903
  58.7676993  22.9092753  62.8148903  53.5186993  24.3902753  59.4758903
  54.0076993  24.0982753  60.1368903  53.6476993  23.7972753  58.8488903
  53.6096993  24.2592753  59.4808903  58.0436993  25.8242753  54.9618903
  57.4336993  25.4192753  55.4358903  57.6576993  25.9422753  54.1888903
  57.8966993  25.7812753  54.9178903  54.8626993  28.9332753  70.3638903
  54.4416993  28.4152753  69.8028903  54.5106993  29.7192753  70.2208903
  54.7486993  28.9732753  70.2598903  59.4986993  24.2852753  57.6718903
  59.7706993  25.1112753  57.7388903  58.6356993  24.3602753  57.5758903
  59.4116993  24.4182753  57.6668903  52.9786993  20.2552753  64.2078903
  53.0226993  20.5992753  63.4068903  53.7336993  20.4922753  64.5748903
  53.0966993  20.3412753  64.1438903  64.9196993  29.5942753  55.6778903
  65.6036993  29.0802753  55.5088903  64.5026993  29.6402753  54.9128903
  64.9586993  29.5252753  55.5398903  59.6016993  30.7442753  66.9818903
  59.3036993  31.3362753  67.5488903  59.6566993  31.1862753  66.2328903
  59.5656993  30.8972753  66.9548903  57.5806993  29.6942753  70.3798903
  56.7746993  29.4042753  70.5468903  57.4916993  30.5622753  70.3858903
  57.4486993  29.7792753  70.4048903  62.1176993  27.1672753  66.4728903
  62.5936993  27.5412753  67.1008903  61.2946993  27.3012753  66.7318903
  62.0666993  27.2422753  66.6038903  58.8276993  22.7702753  69.2138903
  58.9886993  22.0262753  69.6408903  58.7826993  22.5212753  68.3788903
  58.8446993  22.6232753  69.1538903  61.3816993  34.5602753  61.7008903
  61.9276993  35.2392753  61.7548903  61.0316993  34.6422753  60.9058903
  61.4106993  34.6732753  61.5908903  60.5796993  18.5782753  69.0938903
  61.2846993  18.8982753  68.6918903  60.8206993  17.7712753  69.3208903
  60.7186993  18.5062753  69.0678903  59.5646993  32.7882753  65.0898903
  58.9406993  33.3702753  64.9078903  59.8126993  32.5022753  64.3038903
  59.5086993  32.8322753  64.9468903  63.8736993  29.4222753  72.0788903
  64.6306993  29.7082753  71.7528903  63.3266993  29.4742753  71.4008903
  63.9046993  29.4722753  71.9298903  61.1586993  27.5642753  55.0048903
  60.3536993  27.3872753  54.7198903  61.1256993  28.4152753  55.1968903
  61.0346993  27.6632753  54.9918903  57.0886993  23.6312753  65.1548903
  57.5286993  23.5282753  64.4088903  57.6336993  23.3182753  65.7598903
  57.2336993  23.5702753  65.1338903  64.7926993  24.2702753  67.0448903
  65.0946993  24.6902753  67.7478903  64.8286993  23.4302753  67.2768903
  64.8426993  24.2082753  67.1828903  62.2176993  34.4372753  70.9698903
  62.6956993  33.8372753  70.5538903  61.8666993  33.9942753  71.6348903
  62.2366993  34.2832753  71.0068903  60.6356993  18.6162753  65.2018903
  59.8096993  18.4672753  65.4388903  60.5956993  18.6512753  64.3308903
  60.5076993  18.5992753  65.1078903  62.2766993  29.6562753  69.9898903
  61.4816993  29.5922753  70.3408903  62.3476993  30.5032753  69.7948903
  62.1696993  29.7712753  70.0128903  53.2006993  19.0142753  71.2368903
  53.0606993  19.8092753  70.9058903  52.4146993  18.7712753  71.5258903
  53.0636993  19.0962753  71.2308903  58.1066993  35.8632753  65.3068903
  58.1176993  35.9222753  66.1768903  57.6816993  35.1162753  65.1568903
  58.0456993  35.7612753  65.4128903  56.2646993  21.7582753  58.4618903
  56.3906993  21.4292753  57.6638903  55.4526993  21.5092753  58.6608903
  56.1636993  21.6732753  58.3738903  65.0216993  28.9112753  61.5058903
  65.0976993  29.2522753  62.3048903  65.1906993  28.0642753  61.6268903
  65.0576993  28.8362753  61.6418903  62.5436993  28.1852753  61.0708903
  62.2456993  27.8702753  61.8278903  63.2386993  28.6582753  61.3058903
  62.6026993  28.2082753  61.2178903  62.7656993  32.3032753  69.0978903
  63.4526993  32.1892753  69.6228903  62.8996993  33.0942753  68.7538903
  62.8866993  32.4032753  69.1248903  54.8706993  35.3612753  70.7488903
  54.2166993  34.7922753  70.8468903  54.4956993  36.1342753  70.8998903
  54.7186993  35.3912753  70.7858903  63.3886993  26.7672753  72.6718903
  63.7116993  27.4532753  72.2398903  62.6846993  27.0902753  73.0738903
  63.3316993  26.9162753  72.6668903  63.1736993  30.2312753  66.5308903
  62.4796993  30.6332753  66.8738903  63.8506993  30.6642753  66.8698903
  63.1706993  30.3542753  66.6318903  56.2416993  23.7692753  68.8778903
  56.6166993  24.3882753  68.3908903  56.9156993  23.2952753  69.1628903
  56.3966993  23.7912753  68.8478903  54.0166993  22.2172753  68.1528903
  54.0936993  22.0482753  67.2998903  54.7626993  22.6232753  68.3498903
  54.1376993  22.2522753  68.0558903  56.5706993  19.6272753  70.5638903
  56.4896993  18.7832753  70.7698903  56.2566993  19.6712753  69.7508903
  56.5126993  19.5092753  70.4738903  63.4956993  31.8222753  59.6998903
  63.2906993  32.6552753  59.5408903  62.7206993  31.4402753  59.8218903
  63.3506993  31.8892753  59.6948903  53.4136993  27.4432753  68.3768903
  53.7336993  27.6622753  67.5958903  53.3136993  26.5782753  68.3218903
  53.4456993  27.3482753  68.2538903  54.8696993  23.3792753  54.9948903
  54.1976993  23.3932753  55.5508903  54.9646993  22.5312753  54.8108903
  54.7846993  23.2562753  55.0498903  64.5566993  19.8032753  71.7308903
  64.6486993  20.5152753  72.2248903  63.9196993  19.3582753  72.1278903
  64.4756993  19.8422753  71.8628903  63.5506993  19.9932753  62.5848903
  62.8506993  20.5112753  62.5288903  63.5886993  19.6132753  61.8008903
  63.4526993  20.0142753  62.4608903  58.8576993  32.0842753  56.1088903
  59.2986993  32.1642753  56.8568903  58.0526993  31.8682753  56.3668903
  58.8036993  32.0642753  56.2578903  58.1766993  26.7352753  69.7618903
  57.7806993  27.5092753  69.8368903  57.7706993  26.3622753  69.0858903
  58.0586993  26.7942753  69.6728903  56.1866993  31.1542753  56.7098903
  55.9426993  30.8472753  57.4898903  56.1536993  30.4512753  56.1938903
  56.1456993  31.0052753  56.7488903  59.0056993  29.3992753  55.4528903
  58.1876993  29.1312753  55.5928903  58.9776993  30.2512753  55.6378903
  58.8806993  29.4862753  55.5008903  58.6056993  19.7122753  67.2118903
  57.7416993  19.7962753  67.2918903  58.8256993  19.1982753  67.8808903
  58.5106993  19.6492753  67.3228903  62.7086993  20.4602753  65.5858903
  61.9716993  20.0062753  65.6988903  63.2796993  20.0582753  66.1088903
  62.6836993  20.3332753  65.6798903  65.4406993  31.3082753  67.3738903
  65.6466993  31.6092753  68.1658903  65.3796993  32.0302753  66.8888903
  65.4616993  31.4592753  67.4188903  64.9746993  35.5222753  71.6198903
  64.2216993  35.5042753  71.1788903  65.1426993  36.3742753  71.7038903
  64.8886993  35.6452753  71.5668903  60.2116993  24.7892753  70.7898903
  59.8896993  24.2132753  70.2198903  59.8526993  25.5442753  70.5438903
  60.1116993  24.8152753  70.6698903  61.0076993  18.0412753  55.4168903
  61.0856993  18.2882753  54.5838903  60.2646993  18.4182753  55.6748903
  60.9096993  18.1332753  55.3318903  58.6466993  35.1452753  71.0378903
  58.6876993  35.2712753  71.9008903  59.2976993  34.5852753  70.8818903
  58.7486993  35.0812753  71.1428903  55.8256993  19.7952753  67.8598903
  55.4826993  19.0282753  67.6258903  55.1306993  20.3192753  67.9238903
  55.6726993  19.7592753  67.8348903  64.8716993  18.6512753  64.8368903
  65.5416993  19.1952753  64.9638903  64.3686993  19.0752753  64.2638903
  64.8966993  18.7942753  64.7708903  56.2396993  33.5282753  72.3978903
  56.8346993  33.9592753  72.8698903  55.8756993  34.1522753  71.9088903
  56.2736993  33.6842753  72.3948903  64.2306993  24.4592753  62.3298903
  64.7816993  23.8522753  62.6298903  63.8056993  24.7222753  63.0448903
  64.2496993  24.4082753  62.4788903  54.4786993  23.1092753  61.8158903
  54.1106993  23.4112753  62.5468903  55.0126993  22.4802753  62.0998903
  54.5026993  23.0612753  61.9658903  54.1666993  31.5172753  69.3268903
  53.5926993  31.9332753  69.8358903  54.8996993  31.9822753  69.4218903
  54.1906993  31.6472753  69.4158903  55.9526993  34.7842753  58.1018903
  55.8076993  34.9402753  57.2558903  56.8186993  34.8632753  58.1798903
  56.0596993  34.8192753  57.9888903  60.1196993  27.1812753  57.8298903
  60.2196993  27.3202753  56.9748903  60.9376993  27.1212753  58.1258903
  60.2546993  27.1922753  57.7468903  65.3546993  31.5102753  57.6318903
  65.1036993  31.3822753  58.4578903  65.0376993  30.8152753  57.2108903
  65.2706993  31.3892753  57.6918903  59.2586993  20.1562753  70.9458903
  59.4926993  19.5802753  70.3328903  58.4166993  19.9752753  71.0868903
  59.1686993  20.0442753  70.8758903  56.6396993  33.5992753  64.5788903
  56.5606993  32.7892753  64.2628903  56.1956993  34.0862753  64.0068903
  56.5626993  33.5512753  64.4478903  62.2406993  29.7182753  57.0618903
  62.9576993  29.3712753  56.7058903  62.2066993  30.5182753  56.7138903
  62.3416993  29.7852753  56.9578903  54.2116993  35.8432753  68.1598903
  54.7046993  35.7872753  68.8778903  54.3996993  35.1102753  67.7248903
  54.3126993  35.7262753  68.2018903  63.6496993  18.3592753  41.3006493
  63.4046993  18.8472753  40.6206493  64.5126993  18.2862753  41.2006493
  63.7406993  18.4202753  41.1856493  63.4586993  25.2752753  45.9716493
  62.9346993  25.8712753  46.3346493  63.8556993  24.9072753  46.6556493
  63.4396993  25.3092753  46.1266493  53.3276993  29.4152753  41.4276493
  52.8866993  29.5332753  42.1706493  53.0446993  28.6402753  41.1426493
  53.2206993  29.3182753  41.4956493  53.0706993  23.2072753  37.9346493
  52.2926993  23.3692753  37.5746493  53.1096993  22.3362753  37.9566493
  52.9616993  23.1022753  37.8846493  56.2096993  28.4702753  36.6066493
  55.8176993  28.0992753  35.9206493  56.1296993  27.8722753  37.2356493
  56.1396993  28.3272753  36.5976493  55.8366993  30.1112753  40.5066493
  56.4446993  29.9412753  41.1096493  55.0856993  29.9712753  40.9276493
  55.8156993  30.0652753  40.6576493  60.1186993  19.4462753  40.4556493
  60.0486993  20.1232753  39.9096493  60.8596993  19.0582753  40.2066493
  60.2176993  19.4892753  40.3376493  54.7276993  33.2022753  36.5836493
  55.1946993  33.2862753  35.8516493  55.1826993  32.6242753  37.0526493
  54.8636993  33.1292753  36.5446493  53.2676993  32.1502753  47.6826493
  53.3966993  31.8702753  48.4986493  52.6576993  31.6092753  47.3736493
  53.1966993  32.0292753  47.7576493  59.8416993  29.6752753  52.7496493
  59.6056993  29.6722753  53.5896493  59.0936993  29.5272753  52.3256493
  59.6956993  29.6522753  52.8106493  54.7136993  26.6712753  41.8846493
  54.2516993  26.2792753  41.2576493  55.4136993  26.1582753  41.9766493
  54.7486993  26.5382753  41.8056493  59.2216993  22.2812753  47.2316493
  59.8996993  22.2992753  46.6826493  59.1766993  21.4452753  47.4766493
  59.3146993  22.1602753  47.1866493  59.8236993  32.8672753  50.0126493
  59.9616993  33.6272753  49.6056493  60.6146993  32.5022753  50.0396493
  59.9606993  32.9262753  49.9566493  56.7146993  24.7712753  41.9076493
  57.5316993  24.5842753  42.1506493  56.2376993  24.1572753  42.3036493
  56.7646993  24.6532753  42.0026493  60.9186993  30.7522753  44.5176493
  61.2666993  29.9532753  44.5476493  61.5836993  31.2562753  44.2626493
  61.0686993  30.7082753  44.4846493  60.9756993  30.2012753  40.7286493
  61.3066993  29.5572753  41.2146493  61.2156993  29.9902753  39.9176493
  61.0596993  30.0752753  40.6806493  62.9436993  24.3322753  52.0676493
  62.0956993  24.2332753  51.8896493  62.9726993  25.0772753  52.5216493
  62.8226993  24.4282753  52.1086493  57.3116993  19.8652753  41.1736493
  57.0156993  20.3662753  40.5236493  58.1786993  19.9432753  41.1166493
  57.3956993  19.9512753  41.0696493  60.2906993  19.0072753  43.3966493
  60.3636993  19.8672753  43.5256493  60.2526993  18.9322753  42.5286493
  60.2956993  19.1232753  43.2876493  64.9636993  21.9332753  35.6956493
  64.5136993  22.6142753  36.0026493  65.0776993  21.4292753  36.3986493
  64.9146993  21.9592753  35.8446493  53.1696993  24.4322753  44.8976493
  52.9136993  25.2632753  44.8226493  52.5056993  24.0492753  45.3146493
  53.0336993  24.4982753  44.9486493  53.0796993  34.1422753  42.7976493
  52.4876993  34.7002753  42.4846493  53.5056993  33.8732753  42.0856493
  53.0556993  34.1842753  42.6466493  58.9196993  31.9862753  40.2776493
  58.3406993  31.7112753  40.8696493  59.5436993  31.3772753  40.3026493
  58.9266993  31.8562753  40.3686493  63.2306993  34.6662753  39.7896493
  63.4446993  35.1932753  40.4516493  63.9976993  34.4922753  39.4106493
  63.3756993  34.7182753  39.8316493  56.1986993  19.2492753  45.3886493
  55.6776993  18.6212753  45.0806493  56.7896993  18.8122753  45.8596493
  56.2096993  19.0912753  45.4126493  59.5046993  21.3822753  54.6866493
  59.6216993  20.9282753  53.9506493  59.7926993  22.1802753  54.4836493
  59.5646993  21.4332753  54.5476493  54.6246993  32.8122753  40.7286493
  55.2806993  32.2372753  40.7436493  55.0136993  33.5612753  40.5076493
  54.7796993  32.8372753  40.6986493  55.2376993  20.9792753  53.6706493
  54.4596993  20.5892753  53.5986493  55.7286993  20.5672753  53.0796493
  55.1946993  20.8602753  53.5726493  55.4426993  31.2992753  44.2286493
  55.8656993  30.9432753  43.5546493  55.7666993  30.8772753  44.9206493
  55.5526993  31.1842753  44.2316493  58.6736993  34.1512753  43.5246493
  59.5176993  34.2552753  43.3296493  58.3766993  34.9692753  43.5926493
  58.7546993  34.2872753  43.5056493  61.8866993  18.6222753  52.8386493
  62.0646993  17.8132753  52.5636493  61.7436993  19.0632753  52.0996493
  61.8916993  18.5682753  52.6886493  62.4806993  23.5482753  41.6116493
  62.7676993  23.3162753  40.8216493  63.2126993  23.6272753  42.0806493
  62.6306993  23.5252753  41.5646493  63.2026993  23.8872753  36.7326493
  63.4836993  24.6752753  36.9816493  62.4266993  24.0522753  36.3696493
  63.1296993  24.0282753  36.7156493  57.6716993  35.3702753  49.2646493
  57.9636993  35.3032753  50.0846493  57.0456993  34.7652753  49.2196493
  57.6226993  35.2712753  49.3796493  52.5856993  21.5272753  51.2566493
  52.5816993  22.1142753  51.9026493  53.1796993  21.8392753  50.6996493
  52.6726993  21.6602753  51.2696493  62.0616993  32.0582753  36.5486493
  61.8806993  32.6032753  37.2056493  62.8276993  32.3482753  36.2476493
  62.1476993  32.1822753  36.6016493  53.5226993  21.1222753  40.1716493
  53.4086993  20.2582753  40.2026493  53.0476993  21.4162753  40.8416493
  53.4356993  21.0382753  40.2746493  55.6646993  33.5322753  48.3866493
  54.9666993  33.0242753  48.5126493  55.9246993  33.3272753  47.5786493
  55.5996993  33.4272753  48.2856493  62.8266993  22.3302753  38.9166493
  62.3186993  21.6682753  38.6626493  62.8786993  22.8342753  38.2066493
  62.7596993  22.3072753  38.7746493  63.3756993  35.0252753  49.2966493
  64.1436993  34.9452753  48.8906493  62.7926993  34.9042753  48.6586493
  63.4026993  34.9952753  49.1426493  62.8266993  19.2712753  38.8076493
  62.3716993  18.8692753  38.1816493  63.5996993  19.4262753  38.4326493
  62.8736993  19.2352753  38.6596493  61.4246993  21.6382753  43.3296493
  61.4986993  22.2062753  42.6716493  61.5456993  22.1302753  44.0396493
  61.4526993  21.7952753  43.3376493  57.0256993  32.3832753  50.9536493
  57.8666993  32.4462753  50.7316493  56.9886993  32.7802753  51.7296493
  57.1446993  32.4512753  51.0356493  56.0326993  17.4612753  41.6776493
  56.5686993  18.1492753  41.6676493  56.0356993  17.1872753  40.8496493
  56.1116993  17.5222753  41.5536493  58.9886993  27.8942753  45.7026493
  59.1606993  27.6842753  46.5316493  58.3336993  27.3602753  45.4866493
  58.9176993  27.7842753  45.7936493  65.2166993  21.8082753  49.2176493
  65.1216993  22.1272753  50.0236493  64.6236993  21.1692753  49.1796493
  65.1146993  21.7602753  49.3316493  59.7386993  27.8322753  48.2926493
  59.7916993  28.6792753  48.4946493  59.4536993  27.4622753  49.0296493
  59.7046993  27.9022753  48.4306493  52.5596993  32.2032753  54.5036493
  53.3156993  32.5522753  54.7616493  52.7366993  31.3502753  54.4466493
  52.6976993  32.1282753  54.5336493  56.4806993  21.2712753  43.3316493
  56.7526993  20.8412753  42.6236493  56.3046993  20.6352753  43.9026493
  56.4946993  21.1142753  43.3116493  56.3046993  28.6982753  42.8806493
  57.1556993  28.6182753  42.7076493  55.9476993  28.0162753  42.4686493
  56.3776993  28.5852753  42.7936493  55.0716993  35.4232753  44.1176493
  54.3986993  34.9252753  43.8726493  55.4746993  35.6082753  43.3666493
  55.0316993  35.3772753  43.9706493  54.6216993  22.3732753  46.4136493
  55.4646993  22.5932753  46.3706493  54.2326993  22.9462753  45.8826493
  54.6886993  22.4902753  46.3286493  58.6726993  28.7052753  41.1156493
  59.3856993  29.2002753  41.2056493  58.8946993  28.1382753  40.4896493
  58.8106993  28.6942753  41.0366493  52.8286993  30.3482753  44.4356493
  52.1616993  30.8362753  44.7116493  53.5086993  30.8932753  44.4646493
  52.8306993  30.5002753  44.4806493  60.4756993  24.0582753  54.5316493
  59.9916993  24.6352753  54.9736493  60.4476993  24.3532753  53.7106493
  60.3996993  24.1872753  54.4756493  52.8946993  27.0322753  39.5386493
  52.7096993  26.1932753  39.6906493  53.5536993  26.9962753  38.9686493
  52.9646993  26.9032753  39.4766493  63.1956993  32.4082753  43.4426493
  62.6726993  33.0422753  43.1496493  63.5056993  32.0442753  42.7136493
  63.1636993  32.4482753  43.2916493  53.0666993  31.1962753  39.1136493
  53.6186993  31.7652753  39.4776493  52.8346993  30.6812753  39.7786493
  53.1136993  31.2042753  39.2656493  57.2706993  30.1962753  46.2026493
  57.7376993  30.4852753  46.8806493  57.8426993  29.7182753  45.7486493
  57.4246993  30.1682753  46.2356493  52.8966993  29.6452753  36.7416493
  53.6526993  29.2132753  36.7996493  52.9116993  30.1772753  37.4326493
  53.0106993  29.6602753  36.8526493  53.8366993  27.8662753  44.7466493
  54.2676993  27.7372753  43.9996493  53.6316993  28.7142753  44.7206493
  53.8696993  27.9722753  44.6326493  60.1826993  21.4302753  38.3966493
  60.1806993  21.3132753  37.5316493  60.0016993  22.2782753  38.4886493
  60.1556993  21.5382753  38.2826493  57.9206993  31.3822753  43.0286493
  58.0466993  32.2252753  43.2156493  58.5886993  30.9832753  43.4246493
  58.0386993  31.4482753  43.1146493  56.0506993  24.8652753  52.8906493
  55.5146993  24.3592753  53.3586493  56.0706993  24.4752753  52.1106493
  55.9736993  24.7322753  52.8446493  56.5356993  24.2622753  38.0306493
  56.4076993  23.8142753  38.7686493  55.9536993  23.9202753  37.4786493
  56.4306993  24.1452753  38.0586493  56.7026993  26.0922753  44.6296493
  55.9216993  26.0332753  44.2466493  56.7746993  25.3402753  45.0666493
  56.5976993  25.9732753  44.6376493  57.1326993  25.8292753  48.0976493
  57.1576993  25.1542753  47.5466493  56.4866993  26.3252753  47.7856493
  57.0416993  25.8022753  47.9706493  61.2326993  34.6062753  47.4896493
  60.9556993  33.9652753  46.9666493  61.0246993  35.3322753  47.0516493
  61.1616993  34.6192753  47.3476493  63.6726993  19.4482753  49.9226493
  63.8216993  18.6232753  49.6796493  64.0516993  19.5032753  50.7066493
  63.7506993  19.3342753  50.0026493  54.9316993  27.1842753  53.6566493
  54.8946993  27.6852753  52.9426493  55.2626993  26.4322753  53.3616493
  54.9746993  27.1462753  53.5076493  60.8306993  32.2342753  53.0916493
  61.1846993  32.0562753  53.8686493  60.3946993  31.5052753  52.8926493
  60.8186993  32.1002753  53.1776493  61.8026993  22.9812753  45.7296493
  62.2826993  23.6802753  45.9376493  62.1756993  22.3342753  46.1806493
  61.9286993  22.9892753  45.8266493  63.9916993  26.1502753  38.0036493
  63.9836993  26.8722753  37.5136493  63.3526993  26.2852753  38.5806493
  63.8966993  26.2772753  38.0166493  65.0086993  33.0862753  45.8286493
  64.4056993  32.7902753  45.2716493  65.5536993  33.5382753  45.3196493
  64.9996993  33.1092753  45.6706493  65.0216993  29.9372753  45.2286493
  64.2246993  30.1612753  45.5026493  65.2796993  29.3432753  45.8136493
  64.9416993  29.8822753  45.3556493  58.9136993  34.7492753  39.6766493
  58.7666993  33.9732753  40.0476493  59.6026993  34.6022753  39.1616493
  58.9936993  34.6122753  39.6556493  58.5846993  18.4922753  37.6646493
  58.6816993  18.3852753  38.5256493  57.8766993  18.9982753  37.5996493
  58.4946993  18.5512753  37.7826493  61.2056993  34.2652753  38.0786493
  61.8276993  34.4282753  38.6686493  61.2416993  34.9562753  37.5466493
  61.3026993  34.3912753  38.0876493  64.4726993  33.2842753  54.3516493
  64.6366993  33.5672753  55.1606493  64.7356993  33.9452753  53.8466493
  64.5356993  33.4242753  54.3966493  55.7066993  26.7992753  38.9076493
  56.0306993  26.0202753  38.6856493  56.3526993  27.1672753  39.3626493
  55.8496993  26.7382753  38.9416493  64.0126993  27.7412753  49.6746493
  63.8576993  28.3512753  50.2786493  64.5466993  27.1832753  50.0806493
  64.0686993  27.7492753  49.8236493  52.7036993  18.4602753  39.8756493
  52.8326993  17.7522753  39.3836493  52.3366993  18.1422753  40.6006493
  52.6686993  18.3082753  39.9106493  62.3966993  26.1412753  40.3326493
  62.4556993  26.7912753  40.9116493  62.2076993  25.4452753  40.8236493
  62.3776993  26.1342753  40.4906493  56.8926993  20.6582753  36.8446493
  56.3816993  20.7112753  36.1386493  57.6766993  20.8982753  36.5486493
  56.9326993  20.7012753  36.6966493  61.6196993  28.1882753  44.7636493
  60.7726993  27.9942753  44.8446493  61.9436993  28.0232753  45.5566493
  61.5416993  28.1352753  44.8926493  58.3716993  34.9182753  35.6496493
  58.8106993  34.2212753  35.9376493  58.5786993  35.5422753  36.2226493
  58.4676993  34.9072753  35.7766493  55.4676993  27.8812753  47.0796493
  56.1896993  28.3692753  47.0426493  55.1976993  27.8512753  46.2506493
  55.5346993  27.9492753  46.9516493  58.6976993  23.0522753  43.8146493
  59.5436993  22.8622753  43.9126493  58.3276993  22.2752753  43.6766493
  58.7676993  22.9092753  43.8086493  53.5186993  24.3902753  40.4696493
  54.0076993  24.0982753  41.1306493  53.6476993  23.7972753  39.8426493
  53.6096993  24.2592753  40.4746493  58.0436993  25.8242753  35.9556493
  57.4336993  25.4192753  36.4296493  57.6576993  25.9422753  35.1826493
  57.8966993  25.7812753  35.9116493  54.8626993  28.9332753  51.3576493
  54.4416993  28.4152753  50.7966493  54.5106993  29.7192753  51.2146493
  54.7486993  28.9732753  51.2536493  59.4986993  24.2852753  38.6656493
  59.7706993  25.1112753  38.7326493  58.6356993  24.3602753  38.5696493
  59.4116993  24.4182753  38.6606493  52.9786993  20.2552753  45.2016493
  53.0226993  20.5992753  44.4006493  53.7336993  20.4922753  45.5686493
  53.0966993  20.3412753  45.1376493  64.9196993  29.5942753  36.6716493
  65.6036993  29.0802753  36.5026493  64.5026993  29.6402753  35.9066493
  64.9586993  29.5252753  36.5336493  59.6016993  30.7442753  47.9756493
  59.3036993  31.3362753  48.5426493  59.6566993  31.1862753  47.2266493
  59.5656993  30.8972753  47.9486493  57.5806993  29.6942753  51.3736493
  56.7746993  29.4042753  51.5406493  57.4916993  30.5622753  51.3796493
  57.4486993  29.7792753  51.3986493  62.1176993  27.1672753  47.4666493
  62.5936993  27.5412753  48.0946493  61.2946993  27.3012753  47.7256493
  62.0666993  27.2422753  47.5976493  58.8276993  22.7702753  50.2076493
  58.9886993  22.0262753  50.6346493  58.7826993  22.5212753  49.3726493
  58.8446993  22.6232753  50.1476493  61.3816993  34.5602753  42.6946493
  61.9276993  35.2392753  42.7486493  61.0316993  34.6422753  41.8996493
  61.4106993  34.6732753  42.5846493  60.5796993  18.5782753  50.0876493
  61.2846993  18.8982753  49.6856493  60.8206993  17.7712753  50.3146493
  60.7186993  18.5062753  50.0616493  59.5646993  32.7882753  46.0836493
  58.9406993  33.3702753  45.9016493  59.8126993  32.5022753  45.2976493
  59.5086993  32.8322753  45.9406493  63.8736993  29.4222753  53.0726493
  64.6306993  29.7082753  52.7466493  63.3266993  29.4742753  52.3946493
  63.9046993  29.4722753  52.9236493  61.1586993  27.5642753  35.9986493
  60.3536993  27.3872753  35.7136493  61.1256993  28.4152753  36.1906493
  61.0346993  27.6632753  35.9856493  57.0886993  23.6312753  46.1486493
  57.5286993  23.5282753  45.4026493  57.6336993  23.3182753  46.7536493
  57.2336993  23.5702753  46.1276493  64.7926993  24.2702753  48.0386493
  65.0946993  24.6902753  48.7416493  64.8286993  23.4302753  48.2706493
  64.8426993  24.2082753  48.1766493  62.2176993  34.4372753  51.9636493
  62.6956993  33.8372753  51.5476493  61.8666993  33.9942753  52.6286493
  62.2366993  34.2832753  52.0006493  60.6356993  18.6162753  46.1956493
  59.8096993  18.4672753  46.4326493  60.5956993  18.6512753  45.3246493
  60.5076993  18.5992753  46.1016493  62.2766993  29.6562753  50.9836493
  61.4816993  29.5922753  51.3346493  62.3476993  30.5032753  50.7886493
  62.1696993  29.7712753  51.0066493  53.2006993  19.0142753  52.2306493
  53.0606993  19.8092753  51.8996493  52.4146993  18.7712753  52.5196493
  53.0636993  19.0962753  52.2246493  58.1066993  35.8632753  46.3006493
  58.1176993  35.9222753  47.1706493  57.6816993  35.1162753  46.1506493
  58.0456993  35.7612753  46.4066493  56.2646993  21.7582753  39.4556493
  56.3906993  21.4292753  38.6576493  55.4526993  21.5092753  39.6546493
  56.1636993  21.6732753  39.3676493  65.0216993  28.9112753  42.4996493
  65.0976993  29.2522753  43.2986493  65.1906993  28.0642753  42.6206493
  65.0576993  28.8362753  42.6356493  62.5436993  28.1852753  42.0646493
  62.2456993  27.8702753  42.8216493  63.2386993  28.6582753  42.2996493
  62.6026993  28.2082753  42.2116493  62.7656993  32.3032753  50.0916493
  63.4526993  32.1892753  50.6166493  62.8996993  33.0942753  49.7476493
  62.8866993  32.4032753  50.1186493  54.8706993  35.3612753  51.7426493
  54.2166993  34.7922753  51.8406493  54.4956993  36.1342753  51.8936493
  54.7186993  35.3912753  51.7796493  63.3886993  26.7672753  53.6656493
  63.7116993  27.4532753  53.2336493  62.6846993  27.0902753  54.0676493
  63.3316993  26.9162753  53.6606493  63.1736993  30.2312753  47.5246493
  62.4796993  30.6332753  47.8676493  63.8506993  30.6642753  47.8636493
  63.1706993  30.3542753  47.6256493  56.2416993  23.7692753  49.8716493
  56.6166993  24.3882753  49.3846493  56.9156993  23.2952753  50.1566493
  56.3966993  23.7912753  49.8416493  54.0166993  22.2172753  49.1466493
  54.0936993  22.0482753  48.2936493  54.7626993  22.6232753  49.3436493
  54.1376993  22.2522753  49.0496493  56.5706993  19.6272753  51.5576493
  56.4896993  18.7832753  51.7636493  56.2566993  19.6712753  50.7446493
  56.5126993  19.5092753  51.4676493  63.4956993  31.8222753  40.6936493
  63.2906993  32.6552753  40.5346493  62.7206993  31.4402753  40.8156493
  63.3506993  31.8892753  40.6886493  53.4136993  27.4432753  49.3706493
  53.7336993  27.6622753  48.5896493  53.3136993  26.5782753  49.3156493
  53.4456993  27.3482753  49.2476493  54.8696993  23.3792753  35.9886493
  54.1976993  23.3932753  36.5446493  54.9646993  22.5312753  35.8046493
  54.7846993  23.2562753  36.0436493  64.5566993  19.8032753  52.7246493
  64.6486993  20.5152753  53.2186493  63.9196993  19.3582753  53.1216493
  64.4756993  19.8422753  52.8566493  63.5506993  19.9932753  43.5786493
  62.8506993  20.5112753  43.5226493  63.5886993  19.6132753  42.7946493
  63.4526993  20.0142753  43.4546493  58.8576993  32.0842753  37.1026493
  59.2986993  32.1642753  37.8506493  58.0526993  31.8682753  37.3606493
  58.8036993  32.0642753  37.2516493  58.1766993  26.7352753  50.7556493
  57.7806993  27.5092753  50.8306493  57.7706993  26.3622753  50.0796493
  58.0586993  26.7942753  50.6666493  56.1866993  31.1542753  37.7036493
  55.9426993  30.8472753  38.4836493  56.1536993  30.4512753  37.1876493
  56.1456993  31.0052753  37.7426493  59.0056993  29.3992753  36.4466493
  58.1876993  29.1312753  36.5866493  58.9776993  30.2512753  36.6316493
  58.8806993  29.4862753  36.4946493  58.6056993  19.7122753  48.2056493
  57.7416993  19.7962753  48.2856493  58.8256993  19.1982753  48.8746493
  58.5106993  19.6492753  48.3166493  62.7086993  20.4602753  46.5796493
  61.9716993  20.0062753  46.6926493  63.2796993  20.0582753  47.1026493
  62.6836993  20.3332753  46.6736493  65.4406993  31.3082753  48.3676493
  65.6466993  31.6092753  49.1596493  65.3796993  32.0302753  47.8826493
  65.4616993  31.4592753  48.4126493  64.9746993  35.5222753  52.6136493
  64.2216993  35.5042753  52.1726493  65.1426993  36.3742753  52.6976493
  64.8886993  35.6452753  52.5606493  60.2116993  24.7892753  51.7836493
  59.8896993  24.2132753  51.2136493  59.8526993  25.5442753  51.5376493
  60.1116993  24.8152753  51.6636493  61.0076993  18.0412753  36.4106493
  61.0856993  18.2882753  35.5776493  60.2646993  18.4182753  36.6686493
  60.9096993  18.1332753  36.3256493  58.6466993  35.1452753  52.0316493
  58.6876993  35.2712753  52.8946493  59.2976993  34.5852753  51.8756493
  58.7486993  35.0812753  52.1366493  55.8256993  19.7952753  48.8536493
  55.4826993  19.0282753  48.6196493  55.1306993  20.3192753  48.9176493
  55.6726993  19.7592753  48.8286493  64.8716993  18.6512753  45.8306493
  65.5416993  19.1952753  45.9576493  64.3686993  19.0752753  45.2576493
  64.8966993  18.7942753  45.7646493  56.2396993  33.5282753  53.3916493
  56.8346993  33.9592753  53.8636493  55.8756993  34.1522753  52.9026493
  56.2736993  33.6842753  53.3886493  64.2306993  24.4592753  43.3236493
  64.7816993  23.8522753  43.6236493  63.8056993  24.7222753  44.0386493
  64.2496993  24.4082753  43.4726493  54.4786993  23.1092753  42.8096493
  54.1106993  23.4112753  43.5406493  55.0126993  22.4802753  43.0936493
  54.5026993  23.0612753  42.9596493  54.1666993  31.5172753  50.3206493
  53.5926993  31.9332753  50.8296493  54.8996993  31.9822753  50.4156493
  54.1906993  31.6472753  50.4096493  55.9526993  34.7842753  39.0956493
  55.8076993  34.9402753  38.2496493  56.8186993  34.8632753  39.1736493
  56.0596993  34.8192753  38.9826493  60.1196993  27.1812753  38.8236493
  60.2196993  27.3202753  37.9686493  60.9376993  27.1212753  39.1196493
  60.2546993  27.1922753  38.7406493  65.3546993  31.5102753  38.6256493
  65.1036993  31.3822753  39.4516493  65.0376993  30.8152753  38.2046493
  65.2706993  31.3892753  38.6856493  59.2586993  20.1562753  51.9396493
  59.4926993  19.5802753  51.3266493  58.4166993  19.9752753  52.0806493
  59.1686993  20.0442753  51.8696493  56.6396993  33.5992753  45.5726493
  56.5606993  32.7892753  45.2566493  56.1956993  34.0862753  45.0006493
  56.5626993  33.5512753  45.4416493  62.2406993  29.7182753  38.0556493
  62.9576993  29.3712753  37.6996493  62.2066993  30.5182753  37.7076493
  62.3416993  29.7852753  37.9516493  54.2116993  35.8432753  49.1536493
  54.7046993  35.7872753  49.8716493  54.3996993  35.1102753  48.7186493
  54.3126993  35.7262753  49.1956493  63.6496993  18.3592753  22.2944083
  63.4046993  18.8472753  21.6144083  64.5126993  18.2862753  22.1944083
  63.7406993  18.4202753  22.1794083  63.4586993  25.2752753  26.9654083
  62.9346993  25.8712753  27.3284083  63.8556993  24.9072753  27.6494083
  63.4396993  25.3092753  27.1204083  53.3276993  29.4152753  22.4214083
  52.8866993  29.5332753  23.1644083  53.0446993  28.6402753  22.1364083
  53.2206993  29.3182753  22.4894083  53.0706993  23.2072753  18.9284083
  52.2926993  23.3692753  18.5684083  53.1096993  22.3362753  18.9504083
  52.9616993  23.1022753  18.8784083  56.2096993  28.4702753  17.6004083
  55.8176993  28.0992753  16.9144083  56.1296993  27.8722753  18.2294083
  56.1396993  28.3272753  17.5914083  55.8366993  30.1112753  21.5004083
  56.4446993  29.9412753  22.1034083  55.0856993  29.9712753  21.9214083
  55.8156993  30.0652753  21.6514083  60.1186993  19.4462753  21.4494083
  60.0486993  20.1232753  20.9034083  60.8596993  19.0582753  21.2004083
  60.2176993  19.4892753  21.3314083  54.7276993  33.2022753  17.5774083
  55.1946993  33.2862753  16.8454083  55.1826993  32.6242753  18.0464083
  54.8636993  33.1292753  17.5384083  53.2676993  32.1502753  28.6764083
  53.3966993  31.8702753  29.4924083  52.6576993  31.6092753  28.3674083
  53.1966993  32.0292753  28.7514083  59.8416993  29.6752753  33.7434083
  59.6056993  29.6722753  34.5834083  59.0936993  29.5272753  33.3194083
  59.6956993  29.6522753  33.8044083  54.7136993  26.6712753  22.8784083
  54.2516993  26.2792753  22.2514083  55.4136993  26.1582753  22.9704083
  54.7486993  26.5382753  22.7994083  59.2216993  22.2812753  28.2254083
  59.8996993  22.2992753  27.6764083  59.1766993  21.4452753  28.4704083
  59.3146993  22.1602753  28.1804083  59.8236993  32.8672753  31.0064083
  59.9616993  33.6272753  30.5994083  60.6146993  32.5022753  31.0334083
  59.9606993  32.9262753  30.9504083  56.7146993  24.7712753  22.9014083
  57.5316993  24.5842753  23.1444083  56.2376993  24.1572753  23.2974083
  56.7646993  24.6532753  22.9964083  60.9186993  30.7522753  25.5114083
  61.2666993  29.9532753  25.5414083  61.5836993  31.2562753  25.2564083
  61.0686993  30.7082753  25.4784083  60.9756993  30.2012753  21.7224083
  61.3066993  29.5572753  22.2084083  61.2156993  29.9902753  20.9114083
  61.0596993  30.0752753  21.6744083  62.9436993  24.3322753  33.0614083
  62.0956993  24.2332753  32.8834083  62.9726993  25.0772753  33.5154083
  62.8226993  24.4282753  33.1024083  57.3116993  19.8652753  22.1674083
  57.0156993  20.3662753  21.5174083  58.1786993  19.9432753  22.1104083
  57.3956993  19.9512753  22.0634083  60.2906993  19.0072753  24.3904083
  60.3636993  19.8672753  24.5194083  60.2526993  18.9322753  23.5224083
  60.2956993  19.1232753  24.2814083  64.9636993  21.9332753  16.6894083
  64.5136993  22.6142753  16.9964083  65.0776993  21.4292753  17.3924083
  64.9146993  21.9592753  16.8384083  53.1696993  24.4322753  25.8914083
  52.9136993  25.2632753  25.8164083  52.5056993  24.0492753  26.3084083
  53.0336993  24.4982753  25.9424083  53.0796993  34.1422753  23.7914083
  52.4876993  34.7002753  23.4784083  53.5056993  33.8732753  23.0794083
  53.0556993  34.1842753  23.6404083  58.9196993  31.9862753  21.2714083
  58.3406993  31.7112753  21.8634083  59.5436993  31.3772753  21.2964083
  58.9266993  31.8562753  21.3624083  63.2306993  34.6662753  20.7834083
  63.4446993  35.1932753  21.4454083  63.9976993  34.4922753  20.4044083
  63.3756993  34.7182753  20.8254083  56.1986993  19.2492753  26.3824083
  55.6776993  18.6212753  26.0744083  56.7896993  18.8122753  26.8534083
  56.2096993  19.0912753  26.4064083  59.5046993  21.3822753  35.6804083
  59.6216993  20.9282753  34.9444083  59.7926993  22.1802753  35.4774083
  59.5646993  21.4332753  35.5414083  54.6246993  32.8122753  21.7224083
  55.2806993  32.2372753  21.7374083  55.0136993  33.5612753  21.5014083
  54.7796993  32.8372753  21.6924083  55.2376993  20.9792753  34.6644083
  54.4596993  20.5892753  34.5924083  55.7286993  20.5672753  34.0734083
  55.1946993  20.8602753  34.5664083  55.4426993  31.2992753  25.2224083
  55.8656993  30.9432753  24.5484083  55.7666993  30.8772753  25.9144083
  55.5526993  31.1842753  25.2254083  58.6736993  34.1512753  24.5184083
  59.5176993  34.2552753  24.3234083  58.3766993  34.9692753  24.5864083
  58.7546993  34.2872753  24.4994083  61.8866993  18.6222753  33.8324083
  62.0646993  17.8132753  33.5574083  61.7436993  19.0632753  33.0934083
  61.8916993  18.5682753  33.6824083  62.4806993  23.5482753  22.6054083
  62.7676993  23.3162753  21.8154083  63.2126993  23.6272753  23.0744083
  62.6306993  23.5252753  22.5584083  63.2026993  23.8872753  17.7264083
  63.4836993  24.6752753  17.9754083  62.4266993  24.0522753  17.3634083
  63.1296993  24.0282753  17.7094083  57.6716993  35.3702753  30.2584083
  57.9636993  35.3032753  31.0784083  57.0456993  34.7652753  30.2134083
  57.6226993  35.2712753  30.3734083  52.5856993  21.5272753  32.2504083
  52.5816993  22.1142753  32.8964083  53.1796993  21.8392753  31.6934083
  52.6726993  21.6602753  32.2634083  62.0616993  32.0582753  17.5424083
  61.8806993  32.6032753  18.1994083  62.8276993  32.3482753  17.2414083
  62.1476993  32.1822753  17.5954083  53.5226993  21.1222753  21.1654083
  53.4086993  20.2582753  21.1964083  53.0476993  21.4162753  21.8354083
  53.4356993  21.0382753  21.2684083  55.6646993  33.5322753  29.3804083
  54.9666993  33.0242753  29.5064083  55.9246993  33.3272753  28.5724083
  55.5996993  33.4272753  29.2794083  62.8266993  22.3302753  19.9104083
  62.3186993  21.6682753  19.6564083  62.8786993  22.8342753  19.2004083
  62.7596993  22.3072753  19.7684083  63.3756993  35.0252753  30.2904083
  64.1436993  34.9452753  29.8844083  62.7926993  34.9042753  29.6524083
  63.4026993  34.9952753  30.1364083  62.8266993  19.2712753  19.8014083
  62.3716993  18.8692753  19.1754083  63.5996993  19.4262753  19.4264083
  62.8736993  19.2352753  19.6534083  61.4246993  21.6382753  24.3234083
  61.4986993  22.2062753  23.6654083  61.5456993  22.1302753  25.0334083
  61.4526993  21.7952753  24.3314083  57.0256993  32.3832753  31.9474083
  57.8666993  32.4462753  31.7254083  56.9886993  32.7802753  32.7234083
  57.1446993  32.4512753  32.0294083  56.0326993  17.4612753  22.6714083
  56.5686993  18.1492753  22.6614083  56.0356993  17.1872753  21.8434083
  56.1116993  17.5222753  22.5474083  58.9886993  27.8942753  26.6964083
  59.1606993  27.6842753  27.5254083  58.3336993  27.3602753  26.4804083
  58.9176993  27.7842753  26.7874083  65.2166993  21.8082753  30.2114083
  65.1216993  22.1272753  31.0174083  64.6236993  21.1692753  30.1734083
  65.1146993  21.7602753  30.3254083  59.7386993  27.8322753  29.2864083
  59.7916993  28.6792753  29.4884083  59.4536993  27.4622753  30.0234083
  59.7046993  27.9022753  29.4244083  52.5596993  32.2032753  35.4974083
  53.3156993  32.5522753  35.7554083  52.7366993  31.3502753  35.4404083
  52.6976993  32.1282753  35.5274083  56.4806993  21.2712753  24.3254083
  56.7526993  20.8412753  23.6174083  56.3046993  20.6352753  24.8964083
  56.4946993  21.1142753  24.3054083  56.3046993  28.6982753  23.8744083
  57.1556993  28.6182753  23.7014083  55.9476993  28.0162753  23.4624083
  56.3776993  28.5852753  23.7874083  55.0716993  35.4232753  25.1114083
  54.3986993  34.9252753  24.8664083  55.4746993  35.6082753  24.3604083
  55.0316993  35.3772753  24.9644083  54.6216993  22.3732753  27.4074083
  55.4646993  22.5932753  27.3644083  54.2326993  22.9462753  26.8764083
  54.6886993  22.4902753  27.3224083  58.6726993  28.7052753  22.1094083
  59.3856993  29.2002753  22.1994083  58.8946993  28.1382753  21.4834083
  58.8106993  28.6942753  22.0304083  52.8286993  30.3482753  25.4294083
  52.1616993  30.8362753  25.7054083  53.5086993  30.8932753  25.4584083
  52.8306993  30.5002753  25.4744083  60.4756993  24.0582753  35.5254083
  59.9916993  24.6352753  35.9674083  60.4476993  24.3532753  34.7044083
  60.3996993  24.1872753  35.4694083  52.8946993  27.0322753  20.5324083
  52.7096993  26.1932753  20.6844083  53.5536993  26.9962753  19.9624083
  52.9646993  26.9032753  20.4704083  63.1956993  32.4082753  24.4364083
  62.6726993  33.0422753  24.1434083  63.5056993  32.0442753  23.7074083
  63.1636993  32.4482753  24.2854083  53.0666993  31.1962753  20.1074083
  53.6186993  31.7652753  20.4714083  52.8346993  30.6812753  20.7724083
  53.1136993  31.2042753  20.2594083  57.2706993  30.1962753  27.1964083
  57.7376993  30.4852753  27.8744083  57.8426993  29.7182753  26.7424083
  57.4246993  30.1682753  27.2294083  52.8966993  29.6452753  17.7354083
  53.6526993  29.2132753  17.7934083  52.9116993  30.1772753  18.4264083
  53.0106993  29.6602753  17.8464083  53.8366993  27.8662753  25.7404083
  54.2676993  27.7372753  24.9934083  53.6316993  28.7142753  25.7144083
  53.8696993  27.9722753  25.6264083  60.1826993  21.4302753  19.3904083
  60.1806993  21.3132753  18.5254083  60.0016993  22.2782753  19.4824083
  60.1556993  21.5382753  19.2764083  57.9206993  31.3822753  24.0224083
  58.0466993  32.2252753  24.2094083  58.5886993  30.9832753  24.4184083
  58.0386993  31.4482753  24.1084083  56.0506993  24.8652753  33.8844083
  55.5146993  24.3592753  34.3524083  56.0706993  24.4752753  33.1044083
  55.9736993  24.7322753  33.8384083  56.5356993  24.2622753  19.0244083
  56.4076993  23.8142753  19.7624083  55.9536993  23.9202753  18.4724083
  56.4306993  24.1452753  19.0524083  56.7026993  26.0922753  25.6234083
  55.9216993  26.0332753  25.2404083  56.7746993  25.3402753  26.0604083
  56.5976993  25.9732753  25.6314083  57.1326993  25.8292753  29.0914083
  57.1576993  25.1542753  28.5404083  56.4866993  26.3252753  28.7794083
  57.0416993  25.8022753  28.9644083  61.2326993  34.6062753  28.4834083
  60.9556993  33.9652753  27.9604083  61.0246993  35.3322753  28.0454083
  61.1616993  34.6192753  28.3414083  63.6726993  19.4482753  30.9164083
  63.8216993  18.6232753  30.6734083  64.0516993  19.5032753  31.7004083
  63.7506993  19.3342753  30.9964083  54.9316993  27.1842753  34.6504083
  54.8946993  27.6852753  33.9364083  55.2626993  26.4322753  34.3554083
  54.9746993  27.1462753  34.5014083  60.8306993  32.2342753  34.0854083
  61.1846993  32.0562753  34.8624083  60.3946993  31.5052753  33.8864083
  60.8186993  32.1002753  34.1714083  61.8026993  22.9812753  26.7234083
  62.2826993  23.6802753  26.9314083  62.1756993  22.3342753  27.1744083
  61.9286993  22.9892753  26.8204083  63.9916993  26.1502753  18.9974083
  63.9836993  26.8722753  18.5074083  63.3526993  26.2852753  19.5744083
  63.8966993  26.2772753  19.0104083  65.0086993  33.0862753  26.8224083
  64.4056993  32.7902753  26.2654083  65.5536993  33.5382753  26.3134083
  64.9996993  33.1092753  26.6644083  65.0216993  29.9372753  26.2224083
  64.2246993  30.1612753  26.4964083  65.2796993  29.3432753  26.8074083
  64.9416993  29.8822753  26.3494083  58.9136993  34.7492753  20.6704083
  58.7666993  33.9732753  21.0414083  59.6026993  34.6022753  20.1554083
  58.9936993  34.6122753  20.6494083  58.5846993  18.4922753  18.6584083
  58.6816993  18.3852753  19.5194083  57.8766993  18.9982753  18.5934083
  58.4946993  18.5512753  18.7764083  61.2056993  34.2652753  19.0724083
  61.8276993  34.4282753  19.6624083  61.2416993  34.9562753  18.5404083
  61.3026993  34.3912753  19.0814083  64.4726993  33.2842753  35.3454083
  64.6366993  33.5672753  36.1544083  64.7356993  33.9452753  34.8404083
  64.5356993  33.4242753  35.3904083  55.7066993  26.7992753  19.9014083
  56.0306993  26.0202753  19.6794083  56.3526993  27.1672753  20.3564083
  55.8496993  26.7382753  19.9354083  64.0126993  27.7412753  30.6684083
  63.8576993  28.3512753  31.2724083  64.5466993  27.1832753  31.0744083
  64.0686993  27.7492753  30.8174083  52.7036993  18.4602753  20.8694083
  52.8326993  17.7522753  20.3774083  52.3366993  18.1422753  21.5944083
  52.6686993  18.3082753  20.9044083  62.3966993  26.1412753  21.3264083
  62.4556993  26.7912753  21.9054083  62.2076993  25.4452753  21.8174083
  62.3776993  26.1342753  21.4844083  56.8926993  20.6582753  17.8384083
  56.3816993  20.7112753  17.1324083  57.6766993  20.8982753  17.5424083
  56.9326993  20.7012753  17.6904083  61.6196993  28.1882753  25.7574083
  60.7726993  27.9942753  25.8384083  61.9436993  28.0232753  26.5504083
  61.5416993  28.1352753  25.8864083  58.3716993  34.9182753  16.6434083
  58.8106993  34.2212753  16.9314083  58.5786993  35.5422753  17.2164083
  58.4676993  34.9072753  16.7704083  55.4676993  27.8812753  28.0734083
  56.1896993  28.3692753  28.0364083  55.1976993  27.8512753  27.2444083
  55.5346993  27.9492753  27.9454083  58.6976993  23.0522753  24.8084083
  59.5436993  22.8622753  24.9064083  58.3276993  22.2752753  24.6704083
  58.7676993  22.9092753  24.8024083  53.5186993  24.3902753  21.4634083
  54.0076993  24.0982753  22.1244083  53.6476993  23.7972753  20.8364083
  53.6096993  24.2592753  21.4684083  58.0436993  25.8242753  16.9494083
  57.4336993  25.4192753  17.4234083  57.6576993  25.9422753  16.1764083
  57.8966993  25.7812753  16.9054083  54.8626993  28.9332753  32.3514083
  54.4416993  28.4152753  31.7904083  54.5106993  29.7192753  32.2084083
  54.7486993  28.9732753  32.2474083  59.4986993  24.2852753  19.6594083
  59.7706993  25.1112753  19.7264083  58.6356993  24.3602753  19.5634083
  59.4116993  24.4182753  19.6544083  52.9786993  20.2552753  26.1954083
  53.0226993  20.5992753  25.3944083  53.7336993  20.4922753  26.5624083
  53.0966993  20.3412753  26.1314083  64.9196993  29.5942753  17.6654083
  65.6036993  29.0802753  17.4964083  64.5026993  29.6402753  16.9004083
  64.9586993  29.5252753  17.5274083  59.6016993  30.7442753  28.9694083
  59.3036993  31.3362753  29.5364083  59.6566993  31.1862753  28.2204083
  59.5656993  30.8972753  28.9424083  57.5806993  29.6942753  32.3674083
  56.7746993  29.4042753  32.5344083  57.4916993  30.5622753  32.3734083
  57.4486993  29.7792753  32.3924083  62.1176993  27.1672753  28.4604083
  62.5936993  27.5412753  29.0884083  61.2946993  27.3012753  28.7194083
  62.0666993  27.2422753  28.5914083  58.8276993  22.7702753  31.2014083
  58.9886993  22.0262753  31.6284083  58.7826993  22.5212753  30.3664083
  58.8446993  22.6232753  31.1414083  61.3816993  34.5602753  23.6884083
  61.9276993  35.2392753  23.7424083  61.0316993  34.6422753  22.8934083
  61.4106993  34.6732753  23.5784083  60.5796993  18.5782753  31.0814083
  61.2846993  18.8982753  30.6794083  60.8206993  17.7712753  31.3084083
  60.7186993  18.5062753  31.0554083  59.5646993  32.7882753  27.0774083
  58.9406993  33.3702753  26.8954083  59.8126993  32.5022753  26.2914083
  59.5086993  32.8322753  26.9344083  63.8736993  29.4222753  34.0664083
  64.6306993  29.7082753  33.7404083  63.3266993  29.4742753  33.3884083
  63.9046993  29.4722753  33.9174083  61.1586993  27.5642753  16.9924083
  60.3536993  27.3872753  16.7074083  61.1256993  28.4152753  17.1844083
  61.0346993  27.6632753  16.9794083  57.0886993  23.6312753  27.1424083
  57.5286993  23.5282753  26.3964083  57.6336993  23.3182753  27.7474083
  57.2336993  23.5702753  27.1214083  64.7926993  24.2702753  29.0324083
  65.0946993  24.6902753  29.7354083  64.8286993  23.4302753  29.2644083
  64.8426993  24.2082753  29.1704083  62.2176993  34.4372753  32.9574083
  62.6956993  33.8372753  32.5414083  61.8666993  33.9942753  33.6224083
  62.2366993  34.2832753  32.9944083  60.6356993  18.6162753  27.1894083
  59.8096993  18.4672753  27.4264083  60.5956993  18.6512753  26.3184083
  60.5076993  18.5992753  27.0954083  62.2766993  29.6562753  31.9774083
  61.4816993  29.5922753  32.3284083  62.3476993  30.5032753  31.7824083
  62.1696993  29.7712753  32.0004083  53.2006993  19.0142753  33.2244083
  53.0606993  19.8092753  32.8934083  52.4146993  18.7712753  33.5134083
  53.0636993  19.0962753  33.2184083  58.1066993  35.8632753  27.2944083
  58.1176993  35.9222753  28.1644083  57.6816993  35.1162753  27.1444083
  58.0456993  35.7612753  27.4004083  56.2646993  21.7582753  20.4494083
  56.3906993  21.4292753  19.6514083  55.4526993  21.5092753  20.6484083
  56.1636993  21.6732753  20.3614083  65.0216993  28.9112753  23.4934083
  65.0976993  29.2522753  24.2924083  65.1906993  28.0642753  23.6144083
  65.0576993  28.8362753  23.6294083  62.5436993  28.1852753  23.0584083
  62.2456993  27.8702753  23.8154083  63.2386993  28.6582753  23.2934083
  62.6026993  28.2082753  23.2054083  62.7656993  32.3032753  31.0854083
  63.4526993  32.1892753  31.6104083  62.8996993  33.0942753  30.7414083
  62.8866993  32.4032753  31.1124083  54.8706993  35.3612753  32.7364083
  54.2166993  34.7922753  32.8344083  54.4956993  36.1342753  32.8874083
  54.7186993  35.3912753  32.7734083  63.3886993  26.7672753  34.6594083
  63.7116993  27.4532753  34.2274083  62.6846993  27.0902753  35.0614083
  63.3316993  26.9162753  34.6544083  63.1736993  30.2312753  28.5184083
  62.4796993  30.6332753  28.8614083  63.8506993  30.6642753  28.8574083
  63.1706993  30.3542753  28.6194083  56.2416993  23.7692753  30.8654083
  56.6166993  24.3882753  30.3784083  56.9156993  23.2952753  31.1504083
  56.3966993  23.7912753  30.8354083  54.0166993  22.2172753  30.1404083
  54.0936993  22.0482753  29.2874083  54.7626993  22.6232753  30.3374083
  54.1376993  22.2522753  30.0434083  56.5706993  19.6272753  32.5514083
  56.4896993  18.7832753  32.7574083  56.2566993  19.6712753  31.7384083
  56.5126993  19.5092753  32.4614083  63.4956993  31.8222753  21.6874083
  63.2906993  32.6552753  21.5284083  62.7206993  31.4402753  21.8094083
  63.3506993  31.8892753  21.6824083  53.4136993  27.4432753  30.3644083
  53.7336993  27.6622753  29.5834083  53.3136993  26.5782753  30.3094083
  53.4456993  27.3482753  30.2414083  54.8696993  23.3792753  16.9824083
  54.1976993  23.3932753  17.5384083  54.9646993  22.5312753  16.7984083
  54.7846993  23.2562753  17.0374083  64.5566993  19.8032753  33.7184083
  64.6486993  20.5152753  34.2124083  63.9196993  19.3582753  34.1154083
  64.4756993  19.8422753  33.8504083  63.5506993  19.9932753  24.5724083
  62.8506993  20.5112753  24.5164083  63.5886993  19.6132753  23.7884083
  63.4526993  20.0142753  24.4484083  58.8576993  32.0842753  18.0964083
  59.2986993  32.1642753  18.8444083  58.0526993  31.8682753  18.3544083
  58.8036993  32.0642753  18.2454083  58.1766993  26.7352753  31.7494083
  57.7806993  27.5092753  31.8244083  57.7706993  26.3622753  31.0734083
  58.0586993  26.7942753  31.6604083  56.1866993  31.1542753  18.6974083
  55.9426993  30.8472753  19.4774083  56.1536993  30.4512753  18.1814083
  56.1456993  31.0052753  18.7364083  59.0056993  29.3992753  17.4404083
  58.1876993  29.1312753  17.5804083  58.9776993  30.2512753  17.6254083
  58.8806993  29.4862753  17.4884083  58.6056993  19.7122753  29.1994083
  57.7416993  19.7962753  29.2794083  58.8256993  19.1982753  29.8684083
  58.5106993  19.6492753  29.3104083  62.7086993  20.4602753  27.5734083
  61.9716993  20.0062753  27.6864083  63.2796993  20.0582753  28.0964083
  62.6836993  20.3332753  27.6674083  65.4406993  31.3082753  29.3614083
  65.6466993  31.6092753  30.1534083  65.3796993  32.0302753  28.8764083
  65.4616993  31.4592753  29.4064083  64.9746993  35.5222753  33.6074083
  64.2216993  35.5042753  33.1664083  65.1426993  36.3742753  33.6914083
  64.8886993  35.6452753  33.5544083  60.2116993  24.7892753  32.7774083
  59.8896993  24.2132753  32.2074083  59.8526993  25.5442753  32.5314083
  60.1116993  24.8152753  32.6574083  61.0076993  18.0412753  17.4044083
  61.0856993  18.2882753  16.5714083  60.2646993  18.4182753  17.6624083
  60.9096993  18.1332753  17.3194083  58.6466993  35.1452753  33.0254083
  58.6876993  35.2712753  33.8884083  59.2976993  34.5852753  32.8694083
  58.7486993  35.0812753  33.1304083  55.8256993  19.7952753  29.8474083
  55.4826993  19.0282753  29.6134083  55.1306993  20.3192753  29.9114083
  55.6726993  19.7592753  29.8224083  64.8716993  18.6512753  26.8244083
  65.5416993  19.1952753  26.9514083  64.3686993  19.0752753  26.2514083
  64.8966993  18.7942753  26.7584083  56.2396993  33.5282753  34.3854083
  56.8346993  33.9592753  34.8574083  55.8756993  34.1522753  33.8964083
  56.2736993  33.6842753  34.3824083  64.2306993  24.4592753  24.3174083
  64.7816993  23.8522753  24.6174083  63.8056993  24.7222753  25.0324083
  64.2496993  24.4082753  24.4664083  54.4786993  23.1092753  23.8034083
  54.1106993  23.4112753  24.5344083  55.0126993  22.4802753  24.0874083
  54.5026993  23.0612753  23.9534083  54.1666993  31.5172753  31.3144083
  53.5926993  31.9332753  31.8234083  54.8996993  31.9822753  31.4094083
  54.1906993  31.6472753  31.4034083  55.9526993  34.7842753  20.0894083
  55.8076993  34.9402753  19.2434083  56.8186993  34.8632753  20.1674083
  56.0596993  34.8192753  19.9764083  60.1196993  27.1812753  19.8174083
  60.2196993  27.3202753  18.9624083  60.9376993  27.1212753  20.1134083
  60.2546993  27.1922753  19.7344083  65.3546993  31.5102753  19.6194083
  65.1036993  31.3822753  20.4454083  65.0376993  30.8152753  19.1984083
  65.2706993  31.3892753  19.6794083  59.2586993  20.1562753  32.9334083
  59.4926993  19.5802753  32.3204083  58.4166993  19.9752753  33.0744083
  59.1686993  20.0442753  32.8634083  56.6396993  33.5992753  26.5664083
  56.5606993  32.7892753  26.2504083  56.1956993  34.0862753  25.9944083
  56.5626993  33.5512753  26.4354083  62.2406993  29.7182753  19.0494083
  62.9576993  29.3712753  18.6934083  62.2066993  30.5182753  18.7014083
  62.3416993  29.7852753  18.9454083  54.2116993  35.8432753  30.1474083
  54.7046993  35.7872753  30.8654083  54.3996993  35.1102753  29.7124083
  54.3126993  35.7262753  30.1894083  63.6496993  18.3592753   3.2881673
  63.4046993  18.8472753   2.6081673  64.5126993  18.2862753   3.1881673
  63.7406993  18.4202753   3.1731673  63.4586993  25.2752753   7.9591673
  62.9346993  25.8712753   8.3221673  63.8556993  24.9072753   8.6431673
  63.4396993  25.3092753   8.1141673  53.3276993  29.4152753   3.4151673
  52.8866993  29.5332753   4.1581673  53.0446993  28.6402753   3.1301673
  53.2206993  29.3182753   3.4831673  55.8366993  30.1112753   2.4941673
  56.4446993  29.9412753   3.0971673  55.0856993  29.9712753   2.9151673
  55.8156993  30.0652753   2.6451673  60.1186993  19.4462753   2.4431673
  60.0486993  20.1232753   1.8971673  60.8596993  19.0582753   2.1941673
  60.2176993  19.4892753   2.3251673  53.2676993  32.1502753   9.6701673
  53.3966993  31.8702753  10.4861673  52.6576993  31.6092753   9.3611673
  53.1966993  32.0292753   9.7451673  59.8416993  29.6752753  14.7371673
  59.6056993  29.6722753  15.5771673  59.0936993  29.5272753  14.3131673
  59.6956993  29.6522753  14.7981673  54.7136993  26.6712753   3.8721673
  54.2516993  26.2792753   3.2451673  55.4136993  26.1582753   3.9641673
  54.7486993  26.5382753   3.7931673  59.2216993  22.2812753   9.2191673
  59.8996993  22.2992753   8.6701673  59.1766993  21.4452753   9.4641673
  59.3146993  22.1602753   9.1741673  59.8236993  32.8672753  12.0001673
  59.9616993  33.6272753  11.5931673  60.6146993  32.5022753  12.0271673
  59.9606993  32.9262753  11.9441673  56.7146993  24.7712753   3.8951673
  57.5316993  24.5842753   4.1381673  56.2376993  24.1572753   4.2911673
  56.7646993  24.6532753   3.9901673  60.9186993  30.7522753   6.5051673
  61.2666993  29.9532753   6.5351673  61.5836993  31.2562753   6.2501673
  61.0686993  30.7082753   6.4721673  60.9756993  30.2012753   2.7161673
  61.3066993  29.5572753   3.2021673  61.2156993  29.9902753   1.9051673
  61.0596993  30.0752753   2.6681673  62.9436993  24.3322753  14.0551673
  62.0956993  24.2332753  13.8771673  62.9726993  25.0772753  14.5091673
  62.8226993  24.4282753  14.0961673  57.3116993  19.8652753   3.1611673
  57.0156993  20.3662753   2.5111673  58.1786993  19.9432753   3.1041673
  57.3956993  19.9512753   3.0571673  60.2906993  19.0072753   5.3841673
  60.3636993  19.8672753   5.5131673  60.2526993  18.9322753   4.5161673
  60.2956993  19.1232753   5.2751673  53.1696993  24.4322753   6.8851673
  52.9136993  25.2632753   6.8101673  52.5056993  24.0492753   7.3021673
  53.0336993  24.4982753   6.9361673  53.0796993  34.1422753   4.7851673
  52.4876993  34.7002753   4.4721673  53.5056993  33.8732753   4.0731673
  53.0556993  34.1842753   4.6341673  58.9196993  31.9862753   2.2651673
  58.3406993  31.7112753   2.8571673  59.5436993  31.3772753   2.2901673
  58.9266993  31.8562753   2.3561673  63.2306993  34.6662753   1.7771673
  63.4446993  35.1932753   2.4391673  63.9976993  34.4922753   1.3981673
  63.3756993  34.7182753   1.8191673  56.1986993  19.2492753   7.3761673
  55.6776993  18.6212753   7.0681673  56.7896993  18.8122753   7.8471673
  56.2096993  19.0912753   7.4001673  59.5046993  21.3822753  16.6741673
  59.6216993  20.9282753  15.9381673  59.7926993  22.1802753  16.4711673
  59.5646993  21.4332753  16.5351673  54.6246993  32.8122753   2.7161673
  55.2806993  32.2372753   2.7311673  55.0136993  33.5612753   2.4951673
  54.7796993  32.8372753   2.6861673  55.2376993  20.9792753  15.6581673
  54.4596993  20.5892753  15.5861673  55.7286993  20.5672753  15.0671673
  55.1946993  20.8602753  15.5601673  55.4426993  31.2992753   6.2161673
  55.8656993  30.9432753   5.5421673  55.7666993  30.8772753   6.9081673
  55.5526993  31.1842753   6.2191673  58.6736993  34.1512753   5.5121673
  59.5176993  34.2552753   5.3171673  58.3766993  34.9692753   5.5801673
  58.7546993  34.2872753   5.4931673  61.8866993  18.6222753  14.8261673
  62.0646993  17.8132753  14.5511673  61.7436993  19.0632753  14.0871673
  61.8916993  18.5682753  14.6761673  62.4806993  23.5482753   3.5991673
  62.7676993  23.3162753   2.8091673  63.2126993  23.6272753   4.0681673
  62.6306993  23.5252753   3.5521673  57.6716993  35.3702753  11.2521673
  57.9636993  35.3032753  12.0721673  57.0456993  34.7652753  11.2071673
  57.6226993  35.2712753  11.3671673  52.5856993  21.5272753  13.2441673
  52.5816993  22.1142753  13.8901673  53.1796993  21.8392753  12.6871673
  52.6726993  21.6602753  13.2571673  53.5226993  21.1222753   2.1591673
  53.4086993  20.2582753   2.1901673  53.0476993  21.4162753   2.8291673
  53.4356993  21.0382753   2.2621673  55.6646993  33.5322753  10.3741673
  54.9666993  33.0242753  10.5001673  55.9246993  33.3272753   9.5661673
  55.5996993  33.4272753  10.2731673  63.3756993  35.0252753  11.2841673
  64.1436993  34.9452753  10.8781673  62.7926993  34.9042753  10.6461673
  63.4026993  34.9952753  11.1301673  61.4246993  21.6382753   5.3171673
  61.4986993  22.2062753   4.6591673  61.5456993  22.1302753   6.0271673
  61.4526993  21.7952753   5.3251673  57.0256993  32.3832753  12.9411673
  57.8666993  32.4462753  12.7191673  56.9886993  32.7802753  13.7171673
  57.1446993  32.4512753  13.0231673  56.0326993  17.4612753   3.6651673
  56.5686993  18.1492753   3.6551673  56.0356993  17.1872753   2.8371673
  56.1116993  17.5222753   3.5411673  58.9886993  27.8942753   7.6901673
  59.1606993  27.6842753   8.5191673  58.3336993  27.3602753   7.4741673
  58.9176993  27.7842753   7.7811673  65.2166993  21.8082753  11.2051673
  65.1216993  22.1272753  12.0111673  64.6236993  21.1692753  11.1671673
  65.1146993  21.7602753  11.3191673  59.7386993  27.8322753  10.2801673
  59.7916993  28.6792753  10.4821673  59.4536993  27.4622753  11.0171673
  59.7046993  27.9022753  10.4181673  52.5596993  32.2032753  16.4911673
  53.3156993  32.5522753  16.7491673  52.7366993  31.3502753  16.4341673
  52.6976993  32.1282753  16.5211673  56.4806993  21.2712753   5.3191673
  56.7526993  20.8412753   4.6111673  56.3046993  20.6352753   5.8901673
  56.4946993  21.1142753   5.2991673  56.3046993  28.6982753   4.8681673
  57.1556993  28.6182753   4.6951673  55.9476993  28.0162753   4.4561673
  56.3776993  28.5852753   4.7811673  55.0716993  35.4232753   6.1051673
  54.3986993  34.9252753   5.8601673  55.4746993  35.6082753   5.3541673
  55.0316993  35.3772753   5.9581673  54.6216993  22.3732753   8.4011673
  55.4646993  22.5932753   8.3581673  54.2326993  22.9462753   7.8701673
  54.6886993  22.4902753   8.3161673  58.6726993  28.7052753   3.1031673
  59.3856993  29.2002753   3.1931673  58.8946993  28.1382753   2.4771673
  58.8106993  28.6942753   3.0241673  52.8286993  30.3482753   6.4231673
  52.1616993  30.8362753   6.6991673  53.5086993  30.8932753   6.4521673
  52.8306993  30.5002753   6.4681673  60.4756993  24.0582753  16.5191673
  59.9916993  24.6352753  16.9611673  60.4476993  24.3532753  15.6981673
  60.3996993  24.1872753  16.4631673  63.1956993  32.4082753   5.4301673
  62.6726993  33.0422753   5.1371673  63.5056993  32.0442753   4.7011673
  63.1636993  32.4482753   5.2791673  57.2706993  30.1962753   8.1901673
  57.7376993  30.4852753   8.8681673  57.8426993  29.7182753   7.7361673
  57.4246993  30.1682753   8.2231673  53.8366993  27.8662753   6.7341673
  54.2676993  27.7372753   5.9871673  53.6316993  28.7142753   6.7081673
  53.8696993  27.9722753   6.6201673  57.9206993  31.3822753   5.0161673
  58.0466993  32.2252753   5.2031673  58.5886993  30.9832753   5.4121673
  58.0386993  31.4482753   5.1021673  56.0506993  24.8652753  14.8781673
  55.5146993  24.3592753  15.3461673  56.0706993  24.4752753  14.0981673
  55.9736993  24.7322753  14.8321673  56.7026993  26.0922753   6.6171673
  55.9216993  26.0332753   6.2341673  56.7746993  25.3402753   7.0541673
  56.5976993  25.9732753   6.6251673  57.1326993  25.8292753  10.0851673
  57.1576993  25.1542753   9.5341673  56.4866993  26.3252753   9.7731673
  57.0416993  25.8022753   9.9581673  61.2326993  34.6062753   9.4771673
  60.9556993  33.9652753   8.9541673  61.0246993  35.3322753   9.0391673
  61.1616993  34.6192753   9.3351673  63.6726993  19.4482753  11.9101673
  63.8216993  18.6232753  11.6671673  64.0516993  19.5032753  12.6941673
  63.7506993  19.3342753  11.9901673  54.9316993  27.1842753  15.6441673
  54.8946993  27.6852753  14.9301673  55.2626993  26.4322753  15.3491673
  54.9746993  27.1462753  15.4951673  60.8306993  32.2342753  15.0791673
  61.1846993  32.0562753  15.8561673  60.3946993  31.5052753  14.8801673
  60.8186993  32.1002753  15.1651673  61.8026993  22.9812753   7.7171673
  62.2826993  23.6802753   7.9251673  62.1756993  22.3342753   8.1681673
  61.9286993  22.9892753   7.8141673  65.0086993  33.0862753   7.8161673
  64.4056993  32.7902753   7.2591673  65.5536993  33.5382753   7.3071673
  64.9996993  33.1092753   7.6581673  65.0216993  29.9372753   7.2161673
  64.2246993  30.1612753   7.4901673  65.2796993  29.3432753   7.8011673
  64.9416993  29.8822753   7.3431673  64.4726993  33.2842753  16.3391673
  64.6366993  33.5672753  17.1481673  64.7356993  33.9452753  15.8341673
  64.5356993  33.4242753  16.3841673  64.0126993  27.7412753  11.6621673
  63.8576993  28.3512753  12.2661673  64.5466993  27.1832753  12.0681673
  64.0686993  27.7492753  11.8111673  52.7036993  18.4602753   1.8631673
  52.8326993  17.7522753   1.3711673  52.3366993  18.1422753   2.5881673
  52.6686993  18.3082753   1.8981673  62.3966993  26.1412753   2.3201673
  62.4556993  26.7912753   2.8991673  62.2076993  25.4452753   2.8111673
  62.3776993  26.1342753   2.4781673  61.6196993  28.1882753   6.7511673
  60.7726993  27.9942753   6.8321673  61.9436993  28.0232753   7.5441673
  61.5416993  28.1352753   6.8801673  55.4676993  27.8812753   9.0671673
  56.1896993  28.3692753   9.0301673  55.1976993  27.8512753   8.2381673
  55.5346993  27.9492753   8.9391673  58.6976993  23.0522753   5.8021673
  59.5436993  22.8622753   5.9001673  58.3276993  22.2752753   5.6641673
  58.7676993  22.9092753   5.7961673  53.5186993  24.3902753   2.4571673
  54.0076993  24.0982753   3.1181673  53.6476993  23.7972753   1.8301673
  53.6096993  24.2592753   2.4621673  54.8626993  28.9332753  13.3451673
  54.4416993  28.4152753  12.7841673  54.5106993  29.7192753  13.2021673
  54.7486993  28.9732753  13.2411673  52.9786993  20.2552753   7.1891673
  53.0226993  20.5992753   6.3881673  53.7336993  20.4922753   7.5561673
  53.0966993  20.3412753   7.1251673  59.6016993  30.7442753   9.9631673
  59.3036993  31.3362753  10.5301673  59.6566993  31.1862753   9.2141673
  59.5656993  30.8972753   9.9361673  57.5806993  29.6942753  13.3611673
  56.7746993  29.4042753  13.5281673  57.4916993  30.5622753  13.3671673
  57.4486993  29.7792753  13.3861673  62.1176993  27.1672753   9.4541673
  62.5936993  27.5412753  10.0821673  61.2946993  27.3012753   9.7131673
  62.0666993  27.2422753   9.5851673  58.8276993  22.7702753  12.1951673
  58.9886993  22.0262753  12.6221673  58.7826993  22.5212753  11.3601673
  58.8446993  22.6232753  12.1351673  61.3816993  34.5602753   4.6821673
  61.9276993  35.2392753   4.7361673  61.0316993  34.6422753   3.8871673
  61.4106993  34.6732753   4.5721673  60.5796993  18.5782753  12.0751673
  61.2846993  18.8982753  11.6731673  60.8206993  17.7712753  12.3021673
  60.7186993  18.5062753  12.0491673  59.5646993  32.7882753   8.0711673
  58.9406993  33.3702753   7.8891673  59.8126993  32.5022753   7.2851673
  59.5086993  32.8322753   7.9281673  63.8736993  29.4222753  15.0601673
  64.6306993  29.7082753  14.7341673  63.3266993  29.4742753  14.3821673
  63.9046993  29.4722753  14.9111673  57.0886993  23.6312753   8.1361673
  57.5286993  23.5282753   7.3901673  57.6336993  23.3182753   8.7411673
  57.2336993  23.5702753   8.1151673  64.7926993  24.2702753  10.0261673
  65.0946993  24.6902753  10.7291673  64.8286993  23.4302753  10.2581673
  64.8426993  24.2082753  10.1641673  62.2176993  34.4372753  13.9511673
  62.6956993  33.8372753  13.5351673  61.8666993  33.9942753  14.6161673
  62.2366993  34.2832753  13.9881673  60.6356993  18.6162753   8.1831673
  59.8096993  18.4672753   8.4201673  60.5956993  18.6512753   7.3121673
  60.5076993  18.5992753   8.0891673  62.2766993  29.6562753  12.9711673
  61.4816993  29.5922753  13.3221673  62.3476993  30.5032753  12.7761673
  62.1696993  29.7712753  12.9941673  53.2006993  19.0142753  14.2181673
  53.0606993  19.8092753  13.8871673  52.4146993  18.7712753  14.5071673
  53.0636993  19.0962753  14.2121673  58.1066993  35.8632753   8.2881673
  58.1176993  35.9222753   9.1581673  57.6816993  35.1162753   8.1381673
  58.0456993  35.7612753   8.3941673  65.0216993  28.9112753   4.4871673
  65.0976993  29.2522753   5.2861673  65.1906993  28.0642753   4.6081673
  65.0576993  28.8362753   4.6231673  62.5436993  28.1852753   4.0521673
  62.2456993  27.8702753   4.8091673  63.2386993  28.6582753   4.2871673
  62.6026993  28.2082753   4.1991673  62.7656993  32.3032753  12.0791673
  63.4526993  32.1892753  12.6041673  62.8996993  33.0942753  11.7351673
  62.8866993  32.4032753  12.1061673  54.8706993  35.3612753  13.7301673
  54.2166993  34.7922753  13.8281673  54.4956993  36.1342753  13.8811673
  54.7186993  35.3912753  13.7671673  63.3886993  26.7672753  15.6531673
  63.7116993  27.4532753  15.2211673  62.6846993  27.0902753  16.0551673
  63.3316993  26.9162753  15.6481673  63.1736993  30.2312753   9.5121673
  62.4796993  30.6332753   9.8551673  63.8506993  30.6642753   9.8511673
  63.1706993  30.3542753   9.6131673  56.2416993  23.7692753  11.8591673
  56.6166993  24.3882753  11.3721673  56.9156993  23.2952753  12.1441673
  56.3966993  23.7912753  11.8291673  54.0166993  22.2172753  11.1341673
  54.0936993  22.0482753  10.2811673  54.7626993  22.6232753  11.3311673
  54.1376993  22.2522753  11.0371673  56.5706993  19.6272753  13.5451673
  56.4896993  18.7832753  13.7511673  56.2566993  19.6712753  12.7321673
  56.5126993  19.5092753  13.4551673  63.4956993  31.8222753   2.6811673
  63.2906993  32.6552753   2.5221673  62.7206993  31.4402753   2.8031673
  63.3506993  31.8892753   2.6761673  53.4136993  27.4432753  11.3581673
  53.7336993  27.6622753  10.5771673  53.3136993  26.5782753  11.3031673
  53.4456993  27.3482753  11.2351673  64.5566993  19.8032753  14.7121673
  64.6486993  20.5152753  15.2061673  63.9196993  19.3582753  15.1091673
  64.4756993  19.8422753  14.8441673  63.5506993  19.9932753   5.5661673
  62.8506993  20.5112753   5.5101673  63.5886993  19.6132753   4.7821673
  63.4526993  20.0142753   5.4421673  58.1766993  26.7352753  12.7431673
  57.7806993  27.5092753  12.8181673  57.7706993  26.3622753  12.0671673
  58.0586993  26.7942753  12.6541673  58.6056993  19.7122753  10.1931673
  57.7416993  19.7962753  10.2731673  58.8256993  19.1982753  10.8621673
  58.5106993  19.6492753  10.3041673  62.7086993  20.4602753   8.5671673
  61.9716993  20.0062753   8.6801673  63.2796993  20.0582753   9.0901673
  62.6836993  20.3332753   8.6611673  65.4406993  31.3082753  10.3551673
  65.6466993  31.6092753  11.1471673  65.3796993  32.0302753   9.8701673
  65.4616993  31.4592753  10.4001673  64.9746993  35.5222753  14.6011673
  64.2216993  35.5042753  14.1601673  65.1426993  36.3742753  14.6851673
  64.8886993  35.6452753  14.5481673  60.2116993  24.7892753  13.7711673
  59.8896993  24.2132753  13.2011673  59.8526993  25.5442753  13.5251673
  60.1116993  24.8152753  13.6511673  58.6466993  35.1452753  14.0191673
  58.6876993  35.2712753  14.8821673  59.2976993  34.5852753  13.8631673
  58.7486993  35.0812753  14.1241673  55.8256993  19.7952753  10.8411673
  55.4826993  19.0282753  10.6071673  55.1306993  20.3192753  10.9051673
  55.6726993  19.7592753  10.8161673  64.8716993  18.6512753   7.8181673
  65.5416993  19.1952753   7.9451673  64.3686993  19.0752753   7.2451673
  64.8966993  18.7942753   7.7521673  56.2396993  33.5282753  15.3791673
  56.8346993  33.9592753  15.8511673  55.8756993  34.1522753  14.8901673
  56.2736993  33.6842753  15.3761673  64.2306993  24.4592753   5.3111673
  64.7816993  23.8522753   5.6111673  63.8056993  24.7222753   6.0261673
  64.2496993  24.4082753   5.4601673  54.4786993  23.1092753   4.7971673
  54.1106993  23.4112753   5.5281673  55.0126993  22.4802753   5.0811673
  54.5026993  23.0612753   4.9471673  54.1666993  31.5172753  12.3081673
  53.5926993  31.9332753  12.8171673  54.8996993  31.9822753  12.4031673
  54.1906993  31.6472753  12.3971673  59.2586993  20.1562753  13.9271673
  59.4926993  19.5802753  13.3141673  58.4166993  19.9752753  14.0681673
  59.1686993  20.0442753  13.8571673  56.6396993  33.5992753   7.5601673
  56.5606993  32.7892753   7.2441673  56.1956993  34.0862753   6.9881673
  56.5626993  33.5512753   7.4291673  54.2116993  35.8432753  11.1411673
  54.7046993  35.7872753  11.8591673  54.3996993  35.1102753  10.7061673
  54.3126993  35.7262753  11.1831673  63.4586993   6.7971673  83.9841313
  62.9346993   7.3931673  84.3471313  63.8556993   6.4291673  84.6681313
  63.4396993   6.8311673  84.1391313  53.3276993  10.9371673  79.4401313
  52.8866993  11.0551673  80.1831313  53.0446993  10.1621673  79.1551313
  53.2206993  10.8401673  79.5081313  53.0706993   4.7291673  75.9471313
  52.2926993   4.8911673  75.5871313  53.1096993   3.8581673  75.9691313
  52.9616993   4.6241673  75.8971313  56.2096993   9.9921673  74.6191313
  55.8176993   9.6211673  73.9331313  56.1296993   9.3941673  75.2481313
  56.1396993   9.8491673  74.6101313  55.8366993  11.6331673  78.5191313
  56.4446993  11.4631673  79.1221313  55.0856993  11.4931673  78.9401313
  55.8156993  11.5871673  78.6701313  54.7276993  14.7241673  74.5961313
  55.1946993  14.8081673  73.8641313  55.1826993  14.1461673  75.0651313
  54.8636993  14.6511673  74.5571313  53.2676993  13.6721673  85.6951313
  53.3966993  13.3921673  86.5111313  52.6576993  13.1311673  85.3861313
  53.1966993  13.5511673  85.7701313  54.7136993   8.1931673  79.8971313
  54.2516993   7.8011673  79.2701313  55.4136993   7.6801673  79.9891313
  54.7486993   8.0601673  79.8181313  59.2216993   3.8031673  85.2441313
  59.8996993   3.8211673  84.6951313  59.1766993   2.9671673  85.4891313
  59.3146993   3.6821673  85.1991313  59.8236993  14.3891673  88.0251313
  59.9616993  15.1491673  87.6181313  60.6146993  14.0241673  88.0521313
  59.9606993  14.4481673  87.9691313  56.7146993   6.2931673  79.9201313
  57.5316993   6.1061673  80.1631313  56.2376993   5.6791673  80.3161313
  56.7646993   6.1751673  80.0151313  60.9186993  12.2741673  82.5301313
  61.2666993  11.4751673  82.5601313  61.5836993  12.7781673  82.2751313
  61.0686993  12.2301673  82.4971313  60.9756993  11.7231673  78.7411313
  61.3066993  11.0791673  79.2271313  61.2156993  11.5121673  77.9301313
  61.0596993  11.5971673  78.6931313  64.9636993   3.4551673  73.7081313
  64.5136993   4.1361673  74.0151313  65.0776993   2.9511673  74.4111313
  64.9146993   3.4811673  73.8571313  53.1696993   5.9541673  82.9101313
  52.9136993   6.7851673  82.8351313  52.5056993   5.5711673  83.3271313
  53.0336993   6.0201673  82.9611313  53.0796993  15.6641673  80.8101313
  52.4876993  16.2221673  80.4971313  53.5056993  15.3951673  80.0981313
  53.0556993  15.7061673  80.6591313  58.9196993  13.5081673  78.2901313
  58.3406993  13.2331673  78.8821313  59.5436993  12.8991673  78.3151313
  58.9266993  13.3781673  78.3811313  63.2306993  16.1881673  77.8021313
  63.4446993  16.7151673  78.4641313  63.9976993  16.0141673  77.4231313
  63.3756993  16.2401673  77.8441313  54.6246993  14.3341673  78.7411313
  55.2806993  13.7591673  78.7561313  55.0136993  15.0831673  78.5201313
  54.7796993  14.3591673  78.7111313  55.4426993  12.8211673  82.2411313
  55.8656993  12.4651673  81.5671313  55.7666993  12.3991673  82.9331313
  55.5526993  12.7061673  82.2441313  58.6736993  15.6731673  81.5371313
  59.5176993  15.7771673  81.3421313  58.3766993  16.4911673  81.6051313
  58.7546993  15.8091673  81.5181313  62.4806993   5.0701673  79.6241313
  62.7676993   4.8381673  78.8341313  63.2126993   5.1491673  80.0931313
  62.6306993   5.0471673  79.5771313  63.2026993   5.4091673  74.7451313
  63.4836993   6.1971673  74.9941313  62.4266993   5.5741673  74.3821313
  63.1296993   5.5501673  74.7281313  57.6716993  16.8921673  87.2771313
  57.9636993  16.8251673  88.0971313  57.0456993  16.2871673  87.2321313
  57.6226993  16.7931673  87.3921313  62.0616993  13.5801673  74.5611313
  61.8806993  14.1251673  75.2181313  62.8276993  13.8701673  74.2601313
  62.1476993  13.7041673  74.6141313  53.5226993   2.6441673  78.1841313
  53.4086993   1.7801673  78.2151313  53.0476993   2.9381673  78.8541313
  53.4356993   2.5601673  78.2871313  55.6646993  15.0541673  86.3991313
  54.9666993  14.5461673  86.5251313  55.9246993  14.8491673  85.5911313
  55.5996993  14.9491673  86.2981313  62.8266993   3.8521673  76.9291313
  62.3186993   3.1901673  76.6751313  62.8786993   4.3561673  76.2191313
  62.7596993   3.8291673  76.7871313  63.3756993  16.5471673  87.3091313
  64.1436993  16.4671673  86.9031313  62.7926993  16.4261673  86.6711313
  63.4026993  16.5171673  87.1551313  61.4246993   3.1601673  81.3421313
  61.4986993   3.7281673  80.6841313  61.5456993   3.6521673  82.0521313
  61.4526993   3.3171673  81.3501313  58.9886993   9.4161673  83.7151313
  59.1606993   9.2061673  84.5441313  58.3336993   8.8821673  83.4991313
  58.9176993   9.3061673  83.8061313  65.2166993   3.3301673  87.2301313
  65.1216993   3.6491673  88.0361313  64.6236993   2.6911673  87.1921313
  65.1146993   3.2821673  87.3441313  59.7386993   9.3541673  86.3051313
  59.7916993  10.2011673  86.5071313  59.4536993   8.9841673  87.0421313
  59.7046993   9.4241673  86.4431313  56.4806993   2.7931673  81.3441313
  56.7526993   2.3631673  80.6361313  56.3046993   2.1571673  81.9151313
  56.4946993   2.6361673  81.3241313  56.3046993  10.2201673  80.8931313
  57.1556993  10.1401673  80.7201313  55.9476993   9.5381673  80.4811313
  56.3776993  10.1071673  80.8061313  55.0716993  16.9451673  82.1301313
  54.3986993  16.4471673  81.8851313  55.4746993  17.1301673  81.3791313
  55.0316993  16.8991673  81.9831313  54.6216993   3.8951673  84.4261313
  55.4646993   4.1151673  84.3831313  54.2326993   4.4681673  83.8951313
  54.6886993   4.0121673  84.3411313  58.6726993  10.2271673  79.1281313
  59.3856993  10.7221673  79.2181313  58.8946993   9.6601673  78.5021313
  58.8106993  10.2161673  79.0491313  52.8286993  11.8701673  82.4481313
  52.1616993  12.3581673  82.7241313  53.5086993  12.4151673  82.4771313
  52.8306993  12.0221673  82.4931313  52.8946993   8.5541673  77.5511313
  52.7096993   7.7151673  77.7031313  53.5536993   8.5181673  76.9811313
  52.9646993   8.4251673  77.4891313  63.1956993  13.9301673  81.4551313
  62.6726993  14.5641673  81.1621313  63.5056993  13.5661673  80.7261313
  63.1636993  13.9701673  81.3041313  53.0666993  12.7181673  77.1261313
  53.6186993  13.2871673  77.4901313  52.8346993  12.2031673  77.7911313
  53.1136993  12.7261673  77.2781313  57.2706993  11.7181673  84.2151313
  57.7376993  12.0071673  84.8931313  57.8426993  11.2401673  83.7611313
  57.4246993  11.6901673  84.2481313  52.8966993  11.1671673  74.7541313
  53.6526993  10.7351673  74.8121313  52.9116993  11.6991673  75.4451313
  53.0106993  11.1821673  74.8651313  53.8366993   9.3881673  82.7591313
  54.2676993   9.2591673  82.0121313  53.6316993  10.2361673  82.7331313
  53.8696993   9.4941673  82.6451313  60.1826993   2.9521673  76.4091313
  60.1806993   2.8351673  75.5441313  60.0016993   3.8001673  76.5011313
  60.1556993   3.0601673  76.2951313  57.9206993  12.9041673  81.0411313
  58.0466993  13.7471673  81.2281313  58.5886993  12.5051673  81.4371313
  58.0386993  12.9701673  81.1271313  56.5356993   5.7841673  76.0431313
  56.4076993   5.3361673  76.7811313  55.9536993   5.4421673  75.4911313
  56.4306993   5.6671673  76.0711313  56.7026993   7.6141673  82.6421313
  55.9216993   7.5551673  82.2591313  56.7746993   6.8621673  83.0791313
  56.5976993   7.4951673  82.6501313  57.1326993   7.3511673  86.1101313
  57.1576993   6.6761673  85.5591313  56.4866993   7.8471673  85.7981313
  57.0416993   7.3241673  85.9831313  61.2326993  16.1281673  85.5021313
  60.9556993  15.4871673  84.9791313  61.0246993  16.8541673  85.0641313
  61.1616993  16.1411673  85.3601313  61.8026993   4.5031673  83.7421313
  62.2826993   5.2021673  83.9501313  62.1756993   3.8561673  84.1931313
  61.9286993   4.5111673  83.8391313  63.9916993   7.6721673  76.0161313
  63.9836993   8.3941673  75.5261313  63.3526993   7.8071673  76.5931313
  63.8966993   7.7991673  76.0291313  65.0086993  14.6081673  83.8411313
  64.4056993  14.3121673  83.2841313  65.5536993  15.0601673  83.3321313
  64.9996993  14.6311673  83.6831313  65.0216993  11.4591673  83.2411313
  64.2246993  11.6831673  83.5151313  65.2796993  10.8651673  83.8261313
  64.9416993  11.4041673  83.3681313  58.9136993  16.2711673  77.6891313
  58.7666993  15.4951673  78.0601313  59.6026993  16.1241673  77.1741313
  58.9936993  16.1341673  77.6681313  61.2056993  15.7871673  76.0911313
  61.8276993  15.9501673  76.6811313  61.2416993  16.4781673  75.5591313
  61.3026993  15.9131673  76.1001313  55.7066993   8.3211673  76.9201313
  56.0306993   7.5421673  76.6981313  56.3526993   8.6891673  77.3751313
  55.8496993   8.2601673  76.9541313  64.0126993   9.2631673  87.6871313
  63.8576993   9.8731673  88.2911313  64.5466993   8.7051673  88.0931313
  64.0686993   9.2711673  87.8361313  62.3966993   7.6631673  78.3451313
  62.4556993   8.3131673  78.9241313  62.2076993   6.9671673  78.8361313
  62.3776993   7.6561673  78.5031313  56.8926993   2.1801673  74.8571313
  56.3816993   2.2331673  74.1511313  57.6766993   2.4201673  74.5611313
  56.9326993   2.2231673  74.7091313  61.6196993   9.7101673  82.7761313
  60.7726993   9.5161673  82.8571313  61.9436993   9.5451673  83.5691313
  61.5416993   9.6571673  82.9051313  58.3716993  16.4401673  73.6621313
  58.8106993  15.7431673  73.9501313  58.5786993  17.0641673  74.2351313
  58.4676993  16.4291673  73.7891313  55.4676993   9.4031673  85.0921313
  56.1896993   9.8911673  85.0551313  55.1976993   9.3731673  84.2631313
  55.5346993   9.4711673  84.9641313  58.6976993   4.5741673  81.8271313
  59.5436993   4.3841673  81.9251313  58.3276993   3.7971673  81.6891313
  58.7676993   4.4311673  81.8211313  53.5186993   5.9121673  78.4821313
  54.0076993   5.6201673  79.1431313  53.6476993   5.3191673  77.8551313
  53.6096993   5.7811673  78.4871313  58.0436993   7.3461673  73.9681313
  57.4336993   6.9411673  74.4421313  57.6576993   7.4641673  73.1951313
  57.8966993   7.3031673  73.9241313  59.4986993   5.8071673  76.6781313
  59.7706993   6.6331673  76.7451313  58.6356993   5.8821673  76.5821313
  59.4116993   5.9401673  76.6731313  52.9786993   1.7771673  83.2141313
  53.0226993   2.1211673  82.4131313  53.7336993   2.0141673  83.5811313
  53.0966993   1.8631673  83.1501313  64.9196993  11.1161673  74.6841313
  65.6036993  10.6021673  74.5151313  64.5026993  11.1621673  73.9191313
  64.9586993  11.0471673  74.5461313  59.6016993  12.2661673  85.9881313
  59.3036993  12.8581673  86.5551313  59.6566993  12.7081673  85.2391313
  59.5656993  12.4191673  85.9611313  62.1176993   8.6891673  85.4791313
  62.5936993   9.0631673  86.1071313  61.2946993   8.8231673  85.7381313
  62.0666993   8.7641673  85.6101313  58.8276993   4.2921673  88.2201313
  58.9886993   3.5481673  88.6471313  58.7826993   4.0431673  87.3851313
  58.8446993   4.1451673  88.1601313  61.3816993  16.0821673  80.7071313
  61.9276993  16.7611673  80.7611313  61.0316993  16.1641673  79.9121313
  61.4106993  16.1951673  80.5971313  59.5646993  14.3101673  84.0961313
  58.9406993  14.8921673  83.9141313  59.8126993  14.0241673  83.3101313
  59.5086993  14.3541673  83.9531313  61.1586993   9.0861673  74.0111313
  60.3536993   8.9091673  73.7261313  61.1256993   9.9371673  74.2031313
  61.0346993   9.1851673  73.9981313  57.0886993   5.1531673  84.1611313
  57.5286993   5.0501673  83.4151313  57.6336993   4.8401673  84.7661313
  57.2336993   5.0921673  84.1401313  64.7926993   5.7921673  86.0511313
  65.0946993   6.2121673  86.7541313  64.8286993   4.9521673  86.2831313
  64.8426993   5.7301673  86.1891313  58.1066993  17.3851673  84.3131313
  58.1176993  17.4441673  85.1831313  57.6816993  16.6381673  84.1631313
  58.0456993  17.2831673  84.4191313  56.2646993   3.2801673  77.4681313
  56.3906993   2.9511673  76.6701313  55.4526993   3.0311673  77.6671313
  56.1636993   3.1951673  77.3801313  65.0216993  10.4331673  80.5121313
  65.0976993  10.7741673  81.3111313  65.1906993   9.5861673  80.6331313
  65.0576993  10.3581673  80.6481313  62.5436993   9.7071673  80.0771313
  62.2456993   9.3921673  80.8341313  63.2386993  10.1801673  80.3121313
  62.6026993   9.7301673  80.2241313  62.7656993  13.8251673  88.1041313
  63.4526993  13.7111673  88.6291313  62.8996993  14.6161673  87.7601313
  62.8866993  13.9251673  88.1311313  63.1736993  11.7531673  85.5371313
  62.4796993  12.1551673  85.8801313  63.8506993  12.1861673  85.8761313
  63.1706993  11.8761673  85.6381313  56.2416993   5.2911673  87.8841313
  56.6166993   5.9101673  87.3971313  56.9156993   4.8171673  88.1691313
  56.3966993   5.3131673  87.8541313  54.0166993   3.7391673  87.1591313
  54.0936993   3.5701673  86.3061313  54.7626993   4.1451673  87.3561313
  54.1376993   3.7741673  87.0621313  63.4956993  13.3441673  78.7061313
  63.2906993  14.1771673  78.5471313  62.7206993  12.9621673  78.8281313
  63.3506993  13.4111673  78.7011313  53.4136993   8.9651673  87.3831313
  53.7336993   9.1841673  86.6021313  53.3136993   8.1001673  87.3281313
  53.4456993   8.8701673  87.2601313  54.8696993   4.9011673  74.0011313
  54.1976993   4.9151673  74.5571313  54.9646993   4.0531673  73.8171313
  54.7846993   4.7781673  74.0561313  58.8576993  13.6061673  75.1151313
  59.2986993  13.6861673  75.8631313  58.0526993  13.3901673  75.3731313
  58.8036993  13.5861673  75.2641313  58.1766993   8.2571673  88.7681313
  57.7806993   9.0311673  88.8431313  57.7706993   7.8841673  88.0921313
  58.0586993   8.3161673  88.6791313  56.1866993  12.6761673  75.7161313
  55.9426993  12.3691673  76.4961313  56.1536993  11.9731673  75.2001313
  56.1456993  12.5271673  75.7551313  59.0056993  10.9211673  74.4591313
  58.1876993  10.6531673  74.5991313  58.9776993  11.7731673  74.6441313
  58.8806993  11.0081673  74.5071313  65.4406993  12.8301673  86.3801313
  65.6466993  13.1311673  87.1721313  65.3796993  13.5521673  85.8951313
  65.4616993  12.9811673  86.4251313  64.2306993   5.9811673  81.3361313
  64.7816993   5.3741673  81.6361313  63.8056993   6.2441673  82.0511313
  64.2496993   5.9301673  81.4851313  54.4786993   4.6311673  80.8221313
  54.1106993   4.9331673  81.5531313  55.0126993   4.0021673  81.1061313
  54.5026993   4.5831673  80.9721313  54.1666993  13.0391673  88.3331313
  53.5926993  13.4551673  88.8421313  54.8996993  13.5041673  88.4281313
  54.1906993  13.1691673  88.4221313  55.9526993  16.3061673  77.1081313
  55.8076993  16.4621673  76.2621313  56.8186993  16.3851673  77.1861313
  56.0596993  16.3411673  76.9951313  60.1196993   8.7031673  76.8361313
  60.2196993   8.8421673  75.9811313  60.9376993   8.6431673  77.1321313
  60.2546993   8.7141673  76.7531313  65.3546993  13.0321673  76.6381313
  65.1036993  12.9041673  77.4641313  65.0376993  12.3371673  76.2171313
  65.2706993  12.9111673  76.6981313  56.6396993  15.1211673  83.5851313
  56.5606993  14.3111673  83.2691313  56.1956993  15.6081673  83.0131313
  56.5626993  15.0731673  83.4541313  62.2406993  11.2401673  76.0681313
  62.9576993  10.8931673  75.7121313  62.2066993  12.0401673  75.7201313
  62.3416993  11.3071673  75.9641313  54.2116993  17.3651673  87.1661313
  54.7046993  17.3091673  87.8841313  54.3996993  16.6321673  86.7311313
  54.3126993  17.2481673  87.2081313  63.4586993   6.7971673  64.9778903
  62.9346993   7.3931673  65.3408903  63.8556993   6.4291673  65.6618903
  63.4396993   6.8311673  65.1328903  53.3276993  10.9371673  60.4338903
  52.8866993  11.0551673  61.1768903  53.0446993  10.1621673  60.1488903
  53.2206993  10.8401673  60.5018903  53.0706993   4.7291673  56.9408903
  52.2926993   4.8911673  56.5808903  53.1096993   3.8581673  56.9628903
  52.9616993   4.6241673  56.8908903  56.2096993   9.9921673  55.6128903
  55.8176993   9.6211673  54.9268903  56.1296993   9.3941673  56.2418903
  56.1396993   9.8491673  55.6038903  55.8366993  11.6331673  59.5128903
  56.4446993  11.4631673  60.1158903  55.0856993  11.4931673  59.9338903
  55.8156993  11.5871673  59.6638903  54.7276993  14.7241673  55.5898903
  55.1946993  14.8081673  54.8578903  55.1826993  14.1461673  56.0588903
  54.8636993  14.6511673  55.5508903  53.2676993  13.6721673  66.6888903
  53.3966993  13.3921673  67.5048903  52.6576993  13.1311673  66.3798903
  53.1966993  13.5511673  66.7638903  59.8416993  11.1971673  71.7558903
  59.6056993  11.1941673  72.5958903  59.0936993  11.0491673  71.3318903
  59.6956993  11.1741673  71.8168903  54.7136993   8.1931673  60.8908903
  54.2516993   7.8011673  60.2638903  55.4136993   7.6801673  60.9828903
  54.7486993   8.0601673  60.8118903  59.2216993   3.8031673  66.2378903
  59.8996993   3.8211673  65.6888903  59.1766993   2.9671673  66.4828903
  59.3146993   3.6821673  66.1928903  59.8236993  14.3891673  69.0188903
  59.9616993  15.1491673  68.6118903  60.6146993  14.0241673  69.0458903
  59.9606993  14.4481673  68.9628903  56.7146993   6.2931673  60.9138903
  57.5316993   6.1061673  61.1568903  56.2376993   5.6791673  61.3098903
  56.7646993   6.1751673  61.0088903  60.9186993  12.2741673  63.5238903
  61.2666993  11.4751673  63.5538903  61.5836993  12.7781673  63.2688903
  61.0686993  12.2301673  63.4908903  60.9756993  11.7231673  59.7348903
  61.3066993  11.0791673  60.2208903  61.2156993  11.5121673  58.9238903
  61.0596993  11.5971673  59.6868903  62.9436993   5.8541673  71.0738903
  62.0956993   5.7551673  70.8958903  62.9726993   6.5991673  71.5278903
  62.8226993   5.9501673  71.1148903  64.9636993   3.4551673  54.7018903
  64.5136993   4.1361673  55.0088903  65.0776993   2.9511673  55.4048903
  64.9146993   3.4811673  54.8508903  53.1696993   5.9541673  63.9038903
  52.9136993   6.7851673  63.8288903  52.5056993   5.5711673  64.3208903
  53.0336993   6.0201673  63.9548903  53.0796993  15.6641673  61.8038903
  52.4876993  16.2221673  61.4908903  53.5056993  15.3951673  61.0918903
  53.0556993  15.7061673  61.6528903  58.9196993  13.5081673  59.2838903
  58.3406993  13.2331673  59.8758903  59.5436993  12.8991673  59.3088903
  58.9266993  13.3781673  59.3748903  63.2306993  16.1881673  58.7958903
  63.4446993  16.7151673  59.4578903  63.9976993  16.0141673  58.4168903
  63.3756993  16.2401673  58.8378903  59.5046993   2.9041673  73.6928903
  59.6216993   2.4501673  72.9568903  59.7926993   3.7021673  73.4898903
  59.5646993   2.9551673  73.5538903  54.6246993  14.3341673  59.7348903
  55.2806993  13.7591673  59.7498903  55.0136993  15.0831673  59.5138903
  54.7796993  14.3591673  59.7048903  55.2376993   2.5011673  72.6768903
  54.4596993   2.1111673  72.6048903  55.7286993   2.0891673  72.0858903
  55.1946993   2.3821673  72.5788903  55.4426993  12.8211673  63.2348903
  55.8656993  12.4651673  62.5608903  55.7666993  12.3991673  63.9268903
  55.5526993  12.7061673  63.2378903  58.6736993  15.6731673  62.5308903
  59.5176993  15.7771673  62.3358903  58.3766993  16.4911673  62.5988903
  58.7546993  15.8091673  62.5118903  62.4806993   5.0701673  60.6178903
  62.7676993   4.8381673  59.8278903  63.2126993   5.1491673  61.0868903
  62.6306993   5.0471673  60.5708903  63.2026993   5.4091673  55.7388903
  63.4836993   6.1971673  55.9878903  62.4266993   5.5741673  55.3758903
  63.1296993   5.5501673  55.7218903  57.6716993  16.8921673  68.2708903
  57.9636993  16.8251673  69.0908903  57.0456993  16.2871673  68.2258903
  57.6226993  16.7931673  68.3858903  52.5856993   3.0491673  70.2628903
  52.5816993   3.6361673  70.9088903  53.1796993   3.3611673  69.7058903
  52.6726993   3.1821673  70.2758903  62.0616993  13.5801673  55.5548903
  61.8806993  14.1251673  56.2118903  62.8276993  13.8701673  55.2538903
  62.1476993  13.7041673  55.6078903  53.5226993   2.6441673  59.1778903
  53.4086993   1.7801673  59.2088903  53.0476993   2.9381673  59.8478903
  53.4356993   2.5601673  59.2808903  55.6646993  15.0541673  67.3928903
  54.9666993  14.5461673  67.5188903  55.9246993  14.8491673  66.5848903
  55.5996993  14.9491673  67.2918903  62.8266993   3.8521673  57.9228903
  62.3186993   3.1901673  57.6688903  62.8786993   4.3561673  57.2128903
  62.7596993   3.8291673  57.7808903  63.3756993  16.5471673  68.3028903
  64.1436993  16.4671673  67.8968903  62.7926993  16.4261673  67.6648903
  63.4026993  16.5171673  68.1488903  61.4246993   3.1601673  62.3358903
  61.4986993   3.7281673  61.6778903  61.5456993   3.6521673  63.0458903
  61.4526993   3.3171673  62.3438903  57.0256993  13.9051673  69.9598903
  57.8666993  13.9681673  69.7378903  56.9886993  14.3021673  70.7358903
  57.1446993  13.9731673  70.0418903  58.9886993   9.4161673  64.7088903
  59.1606993   9.2061673  65.5378903  58.3336993   8.8821673  64.4928903
  58.9176993   9.3061673  64.7998903  65.2166993   3.3301673  68.2238903
  65.1216993   3.6491673  69.0298903  64.6236993   2.6911673  68.1858903
  65.1146993   3.2821673  68.3378903  59.7386993   9.3541673  67.2988903
  59.7916993  10.2011673  67.5008903  59.4536993   8.9841673  68.0358903
  59.7046993   9.4241673  67.4368903  52.5596993  13.7251673  73.5098903
  53.3156993  14.0741673  73.7678903  52.7366993  12.8721673  73.4528903
  52.6976993  13.6501673  73.5398903  56.4806993   2.7931673  62.3378903
  56.7526993   2.3631673  61.6298903  56.3046993   2.1571673  62.9088903
  56.4946993   2.6361673  62.3178903  56.3046993  10.2201673  61.8868903
  57.1556993  10.1401673  61.7138903  55.9476993   9.5381673  61.4748903
  56.3776993  10.1071673  61.7998903  55.0716993  16.9451673  63.1238903
  54.3986993  16.4471673  62.8788903  55.4746993  17.1301673  62.3728903
  55.0316993  16.8991673  62.9768903  54.6216993   3.8951673  65.4198903
  55.4646993   4.1151673  65.3768903  54.2326993   4.4681673  64.8888903
  54.6886993   4.0121673  65.3348903  58.6726993  10.2271673  60.1218903
  59.3856993  10.7221673  60.2118903  58.8946993   9.6601673  59.4958903
  58.8106993  10.2161673  60.0428903  52.8286993  11.8701673  63.4418903
  52.1616993  12.3581673  63.7178903  53.5086993  12.4151673  63.4708903
  52.8306993  12.0221673  63.4868903  60.4756993   5.5801673  73.5378903
  59.9916993   6.1571673  73.9798903  60.4476993   5.8751673  72.7168903
  60.3996993   5.7091673  73.4818903  52.8946993   8.5541673  58.5448903
  52.7096993   7.7151673  58.6968903  53.5536993   8.5181673  57.9748903
  52.9646993   8.4251673  58.4828903  63.1956993  13.9301673  62.4488903
  62.6726993  14.5641673  62.1558903  63.5056993  13.5661673  61.7198903
  63.1636993  13.9701673  62.2978903  53.0666993  12.7181673  58.1198903
  53.6186993  13.2871673  58.4838903  52.8346993  12.2031673  58.7848903
  53.1136993  12.7261673  58.2718903  57.2706993  11.7181673  65.2088903
  57.7376993  12.0071673  65.8868903  57.8426993  11.2401673  64.7548903
  57.4246993  11.6901673  65.2418903  52.8966993  11.1671673  55.7478903
  53.6526993  10.7351673  55.8058903  52.9116993  11.6991673  56.4388903
  53.0106993  11.1821673  55.8588903  53.8366993   9.3881673  63.7528903
  54.2676993   9.2591673  63.0058903  53.6316993  10.2361673  63.7268903
  53.8696993   9.4941673  63.6388903  60.1826993   2.9521673  57.4028903
  60.1806993   2.8351673  56.5378903  60.0016993   3.8001673  57.4948903
  60.1556993   3.0601673  57.2888903  57.9206993  12.9041673  62.0348903
  58.0466993  13.7471673  62.2218903  58.5886993  12.5051673  62.4308903
  58.0386993  12.9701673  62.1208903  56.0506993   6.3871673  71.8968903
  55.5146993   5.8811673  72.3648903  56.0706993   5.9971673  71.1168903
  55.9736993   6.2541673  71.8508903  56.5356993   5.7841673  57.0368903
  56.4076993   5.3361673  57.7748903  55.9536993   5.4421673  56.4848903
  56.4306993   5.6671673  57.0648903  56.7026993   7.6141673  63.6358903
  55.9216993   7.5551673  63.2528903  56.7746993   6.8621673  64.0728903
  56.5976993   7.4951673  63.6438903  57.1326993   7.3511673  67.1038903
  57.1576993   6.6761673  66.5528903  56.4866993   7.8471673  66.7918903
  57.0416993   7.3241673  66.9768903  61.2326993  16.1281673  66.4958903
  60.9556993  15.4871673  65.9728903  61.0246993  16.8541673  66.0578903
  61.1616993  16.1411673  66.3538903  54.9316993   8.7061673  72.6628903
  54.8946993   9.2071673  71.9488903  55.2626993   7.9541673  72.3678903
  54.9746993   8.6681673  72.5138903  60.8306993  13.7561673  72.0978903
  61.1846993  13.5781673  72.8748903  60.3946993  13.0271673  71.8988903
  60.8186993  13.6221673  72.1838903  61.8026993   4.5031673  64.7358903
  62.2826993   5.2021673  64.9438903  62.1756993   3.8561673  65.1868903
  61.9286993   4.5111673  64.8328903  63.9916993   7.6721673  57.0098903
  63.9836993   8.3941673  56.5198903  63.3526993   7.8071673  57.5868903
  63.8966993   7.7991673  57.0228903  65.0086993  14.6081673  64.8348903
  64.4056993  14.3121673  64.2778903  65.5536993  15.0601673  64.3258903
  64.9996993  14.6311673  64.6768903  65.0216993  11.4591673  64.2348903
  64.2246993  11.6831673  64.5088903  65.2796993  10.8651673  64.8198903
  64.9416993  11.4041673  64.3618903  58.9136993  16.2711673  58.6828903
  58.7666993  15.4951673  59.0538903  59.6026993  16.1241673  58.1678903
  58.9936993  16.1341673  58.6618903  61.2056993  15.7871673  57.0848903
  61.8276993  15.9501673  57.6748903  61.2416993  16.4781673  56.5528903
  61.3026993  15.9131673  57.0938903  64.4726993  14.8061673  73.3578903
  64.6366993  15.0891673  74.1668903  64.7356993  15.4671673  72.8528903
  64.5356993  14.9461673  73.4028903  55.7066993   8.3211673  57.9138903
  56.0306993   7.5421673  57.6918903  56.3526993   8.6891673  58.3688903
  55.8496993   8.2601673  57.9478903  64.0126993   9.2631673  68.6808903
  63.8576993   9.8731673  69.2848903  64.5466993   8.7051673  69.0868903
  64.0686993   9.2711673  68.8298903  62.3966993   7.6631673  59.3388903
  62.4556993   8.3131673  59.9178903  62.2076993   6.9671673  59.8298903
  62.3776993   7.6561673  59.4968903  56.8926993   2.1801673  55.8508903
  56.3816993   2.2331673  55.1448903  57.6766993   2.4201673  55.5548903
  56.9326993   2.2231673  55.7028903  61.6196993   9.7101673  63.7698903
  60.7726993   9.5161673  63.8508903  61.9436993   9.5451673  64.5628903
  61.5416993   9.6571673  63.8988903  58.3716993  16.4401673  54.6558903
  58.8106993  15.7431673  54.9438903  58.5786993  17.0641673  55.2288903
  58.4676993  16.4291673  54.7828903  55.4676993   9.4031673  66.0858903
  56.1896993   9.8911673  66.0488903  55.1976993   9.3731673  65.2568903
  55.5346993   9.4711673  65.9578903  58.6976993   4.5741673  62.8208903
  59.5436993   4.3841673  62.9188903  58.3276993   3.7971673  62.6828903
  58.7676993   4.4311673  62.8148903  53.5186993   5.9121673  59.4758903
  54.0076993   5.6201673  60.1368903  53.6476993   5.3191673  58.8488903
  53.6096993   5.7811673  59.4808903  58.0436993   7.3461673  54.9618903
  57.4336993   6.9411673  55.4358903  57.6576993   7.4641673  54.1888903
  57.8966993   7.3031673  54.9178903  54.8626993  10.4551673  70.3638903
  54.4416993   9.9371673  69.8028903  54.5106993  11.2411673  70.2208903
  54.7486993  10.4951673  70.2598903  59.4986993   5.8071673  57.6718903
  59.7706993   6.6331673  57.7388903  58.6356993   5.8821673  57.5758903
  59.4116993   5.9401673  57.6668903  52.9786993   1.7771673  64.2078903
  53.0226993   2.1211673  63.4068903  53.7336993   2.0141673  64.5748903
  53.0966993   1.8631673  64.1438903  64.9196993  11.1161673  55.6778903
  65.6036993  10.6021673  55.5088903  64.5026993  11.1621673  54.9128903
  64.9586993  11.0471673  55.5398903  59.6016993  12.2661673  66.9818903
  59.3036993  12.8581673  67.5488903  59.6566993  12.7081673  66.2328903
  59.5656993  12.4191673  66.9548903  57.5806993  11.2161673  70.3798903
  56.7746993  10.9261673  70.5468903  57.4916993  12.0841673  70.3858903
  57.4486993  11.3011673  70.4048903  62.1176993   8.6891673  66.4728903
  62.5936993   9.0631673  67.1008903  61.2946993   8.8231673  66.7318903
  62.0666993   8.7641673  66.6038903  58.8276993   4.2921673  69.2138903
  58.9886993   3.5481673  69.6408903  58.7826993   4.0431673  68.3788903
  58.8446993   4.1451673  69.1538903  61.3816993  16.0821673  61.7008903
  61.9276993  16.7611673  61.7548903  61.0316993  16.1641673  60.9058903
  61.4106993  16.1951673  61.5908903  59.5646993  14.3101673  65.0898903
  58.9406993  14.8921673  64.9078903  59.8126993  14.0241673  64.3038903
  59.5086993  14.3541673  64.9468903  63.8736993  10.9441673  72.0788903
  64.6306993  11.2301673  71.7528903  63.3266993  10.9961673  71.4008903
  63.9046993  10.9941673  71.9298903  61.1586993   9.0861673  55.0048903
  60.3536993   8.9091673  54.7198903  61.1256993   9.9371673  55.1968903
  61.0346993   9.1851673  54.9918903  57.0886993   5.1531673  65.1548903
  57.5286993   5.0501673  64.4088903  57.6336993   4.8401673  65.7598903
  57.2336993   5.0921673  65.1338903  64.7926993   5.7921673  67.0448903
  65.0946993   6.2121673  67.7478903  64.8286993   4.9521673  67.2768903
  64.8426993   5.7301673  67.1828903  62.2176993  15.9591673  70.9698903
  62.6956993  15.3591673  70.5538903  61.8666993  15.5161673  71.6348903
  62.2366993  15.8051673  71.0068903  62.2766993  11.1781673  69.9898903
  61.4816993  11.1141673  70.3408903  62.3476993  12.0251673  69.7948903
  62.1696993  11.2931673  70.0128903  58.1066993  17.3851673  65.3068903
  58.1176993  17.4441673  66.1768903  57.6816993  16.6381673  65.1568903
  58.0456993  17.2831673  65.4128903  56.2646993   3.2801673  58.4618903
  56.3906993   2.9511673  57.6638903  55.4526993   3.0311673  58.6608903
  56.1636993   3.1951673  58.3738903  65.0216993  10.4331673  61.5058903
  65.0976993  10.7741673  62.3048903  65.1906993   9.5861673  61.6268903
  65.0576993  10.3581673  61.6418903  62.5436993   9.7071673  61.0708903
  62.2456993   9.3921673  61.8278903  63.2386993  10.1801673  61.3058903
  62.6026993   9.7301673  61.2178903  62.7656993  13.8251673  69.0978903
  63.4526993  13.7111673  69.6228903  62.8996993  14.6161673  68.7538903
  62.8866993  13.9251673  69.1248903  54.8706993  16.8831673  70.7488903
  54.2166993  16.3141673  70.8468903  54.4956993  17.6561673  70.8998903
  54.7186993  16.9131673  70.7858903  63.3886993   8.2891673  72.6718903
  63.7116993   8.9751673  72.2398903  62.6846993   8.6121673  73.0738903
  63.3316993   8.4381673  72.6668903  63.1736993  11.7531673  66.5308903
  62.4796993  12.1551673  66.8738903  63.8506993  12.1861673  66.8698903
  63.1706993  11.8761673  66.6318903  56.2416993   5.2911673  68.8778903
  56.6166993   5.9101673  68.3908903  56.9156993   4.8171673  69.1628903
  56.3966993   5.3131673  68.8478903  54.0166993   3.7391673  68.1528903
  54.0936993   3.5701673  67.2998903  54.7626993   4.1451673  68.3498903
  54.1376993   3.7741673  68.0558903  63.4956993  13.3441673  59.6998903
  63.2906993  14.1771673  59.5408903  62.7206993  12.9621673  59.8218903
  63.3506993  13.4111673  59.6948903  53.4136993   8.9651673  68.3768903
  53.7336993   9.1841673  67.5958903  53.3136993   8.1001673  68.3218903
  53.4456993   8.8701673  68.2538903  54.8696993   4.9011673  54.9948903
  54.1976993   4.9151673  55.5508903  54.9646993   4.0531673  54.8108903
  54.7846993   4.7781673  55.0498903  58.8576993  13.6061673  56.1088903
  59.2986993  13.6861673  56.8568903  58.0526993  13.3901673  56.3668903
  58.8036993  13.5861673  56.2578903  58.1766993   8.2571673  69.7618903
  57.7806993   9.0311673  69.8368903  57.7706993   7.8841673  69.0858903
  58.0586993   8.3161673  69.6728903  56.1866993  12.6761673  56.7098903
  55.9426993  12.3691673  57.4898903  56.1536993  11.9731673  56.1938903
  56.1456993  12.5271673  56.7488903  59.0056993  10.9211673  55.4528903
  58.1876993  10.6531673  55.5928903  58.9776993  11.7731673  55.6378903
  58.8806993  11.0081673  55.5008903  65.4406993  12.8301673  67.3738903
  65.6466993  13.1311673  68.1658903  65.3796993  13.5521673  66.8888903
  65.4616993  12.9811673  67.4188903  64.9746993  17.0441673  71.6198903
  64.2216993  17.0261673  71.1788903  65.1426993  17.8961673  71.7038903
  64.8886993  17.1671673  71.5668903  60.2116993   6.3111673  70.7898903
  59.8896993   5.7351673  70.2198903  59.8526993   7.0661673  70.5438903
  60.1116993   6.3371673  70.6698903  58.6466993  16.6671673  71.0378903
  58.6876993  16.7931673  71.9008903  59.2976993  16.1071673  70.8818903
  58.7486993  16.6031673  71.1428903  56.2396993  15.0501673  72.3978903
  56.8346993  15.4811673  72.8698903  55.8756993  15.6741673  71.9088903
  56.2736993  15.2061673  72.3948903  64.2306993   5.9811673  62.3298903
  64.7816993   5.3741673  62.6298903  63.8056993   6.2441673  63.0448903
  64.2496993   5.9301673  62.4788903  54.4786993   4.6311673  61.8158903
  54.1106993   4.9331673  62.5468903  55.0126993   4.0021673  62.0998903
  54.5026993   4.5831673  61.9658903  54.1666993  13.0391673  69.3268903
  53.5926993  13.4551673  69.8358903  54.8996993  13.5041673  69.4218903
  54.1906993  13.1691673  69.4158903  55.9526993  16.3061673  58.1018903
  55.8076993  16.4621673  57.2558903  56.8186993  16.3851673  58.1798903
  56.0596993  16.3411673  57.9888903  60.1196993   8.7031673  57.8298903
  60.2196993   8.8421673  56.9748903  60.9376993   8.6431673  58.1258903
  60.2546993   8.7141673  57.7468903  65.3546993  13.0321673  57.6318903
  65.1036993  12.9041673  58.4578903  65.0376993  12.3371673  57.2108903
  65.2706993  12.9111673  57.6918903  56.6396993  15.1211673  64.5788903
  56.5606993  14.3111673  64.2628903  56.1956993  15.6081673  64.0068903
  56.5626993  15.0731673  64.4478903  62.2406993  11.2401673  57.0618903
  62.9576993  10.8931673  56.7058903  62.2066993  12.0401673  56.7138903
  62.3416993  11.3071673  56.9578903  54.2116993  17.3651673  68.1598903
  54.7046993  17.3091673  68.8778903  54.3996993  16.6321673  67.7248903
  54.3126993  17.2481673  68.2018903  63.4586993   6.7971673  45.9716493
  62.9346993   7.3931673  46.3346493  63.8556993   6.4291673  46.6556493
  63.4396993   6.8311673  46.1266493  53.3276993  10.9371673  41.4276493
  52.8866993  11.0551673  42.1706493  53.0446993  10.1621673  41.1426493
  53.2206993  10.8401673  41.4956493  53.0706993   4.7291673  37.9346493
  52.2926993   4.8911673  37.5746493  53.1096993   3.8581673  37.9566493
  52.9616993   4.6241673  37.8846493  56.2096993   9.9921673  36.6066493
  55.8176993   9.6211673  35.9206493  56.1296993   9.3941673  37.2356493
  56.1396993   9.8491673  36.5976493  55.8366993  11.6331673  40.5066493
  56.4446993  11.4631673  41.1096493  55.0856993  11.4931673  40.9276493
  55.8156993  11.5871673  40.6576493  54.7276993  14.7241673  36.5836493
  55.1946993  14.8081673  35.8516493  55.1826993  14.1461673  37.0526493
  54.8636993  14.6511673  36.5446493  53.2676993  13.6721673  47.6826493
  53.3966993  13.3921673  48.4986493  52.6576993  13.1311673  47.3736493
  53.1966993  13.5511673  47.7576493  59.8416993  11.1971673  52.7496493
  59.6056993  11.1941673  53.5896493  59.0936993  11.0491673  52.3256493
  59.6956993  11.1741673  52.8106493  54.7136993   8.1931673  41.8846493
  54.2516993   7.8011673  41.2576493  55.4136993   7.6801673  41.9766493
  54.7486993   8.0601673  41.8056493  59.2216993   3.8031673  47.2316493
  59.8996993   3.8211673  46.6826493  59.1766993   2.9671673  47.4766493
  59.3146993   3.6821673  47.1866493  59.8236993  14.3891673  50.0126493
  59.9616993  15.1491673  49.6056493  60.6146993  14.0241673  50.0396493
  59.9606993  14.4481673  49.9566493  56.7146993   6.2931673  41.9076493
  57.5316993   6.1061673  42.1506493  56.2376993   5.6791673  42.3036493
  56.7646993   6.1751673  42.0026493  60.9186993  12.2741673  44.5176493
  61.2666993  11.4751673  44.5476493  61.5836993  12.7781673  44.2626493
  61.0686993  12.2301673  44.4846493  60.9756993  11.7231673  40.7286493
  61.3066993  11.0791673  41.2146493  61.2156993  11.5121673  39.9176493
  61.0596993  11.5971673  40.6806493  62.9436993   5.8541673  52.0676493
  62.0956993   5.7551673  51.8896493  62.9726993   6.5991673  52.5216493
  62.8226993   5.9501673  52.1086493  64.9636993   3.4551673  35.6956493
  64.5136993   4.1361673  36.0026493  65.0776993   2.9511673  36.3986493
  64.9146993   3.4811673  35.8446493  53.1696993   5.9541673  44.8976493
  52.9136993   6.7851673  44.8226493  52.5056993   5.5711673  45.3146493
  53.0336993   6.0201673  44.9486493  53.0796993  15.6641673  42.7976493
  52.4876993  16.2221673  42.4846493  53.5056993  15.3951673  42.0856493
  53.0556993  15.7061673  42.6466493  58.9196993  13.5081673  40.2776493
  58.3406993  13.2331673  40.8696493  59.5436993  12.8991673  40.3026493
  58.9266993  13.3781673  40.3686493  63.2306993  16.1881673  39.7896493
  63.4446993  16.7151673  40.4516493  63.9976993  16.0141673  39.4106493
  63.3756993  16.2401673  39.8316493  59.5046993   2.9041673  54.6866493
  59.6216993   2.4501673  53.9506493  59.7926993   3.7021673  54.4836493
  59.5646993   2.9551673  54.5476493  54.6246993  14.3341673  40.7286493
  55.2806993  13.7591673  40.7436493  55.0136993  15.0831673  40.5076493
  54.7796993  14.3591673  40.6986493  55.2376993   2.5011673  53.6706493
  54.4596993   2.1111673  53.5986493  55.7286993   2.0891673  53.0796493
  55.1946993   2.3821673  53.5726493  55.4426993  12.8211673  44.2286493
  55.8656993  12.4651673  43.5546493  55.7666993  12.3991673  44.9206493
  55.5526993  12.7061673  44.2316493  58.6736993  15.6731673  43.5246493
  59.5176993  15.7771673  43.3296493  58.3766993  16.4911673  43.5926493
  58.7546993  15.8091673  43.5056493  62.4806993   5.0701673  41.6116493
  62.7676993   4.8381673  40.8216493  63.2126993   5.1491673  42.0806493
  62.6306993   5.0471673  41.5646493  63.2026993   5.4091673  36.7326493
  63.4836993   6.1971673  36.9816493  62.4266993   5.5741673  36.3696493
  63.1296993   5.5501673  36.7156493  57.6716993  16.8921673  49.2646493
  57.9636993  16.8251673  50.0846493  57.0456993  16.2871673  49.2196493
  57.6226993  16.7931673  49.3796493  52.5856993   3.0491673  51.2566493
  52.5816993   3.6361673  51.9026493  53.1796993   3.3611673  50.6996493
  52.6726993   3.1821673  51.2696493  62.0616993  13.5801673  36.5486493
  61.8806993  14.1251673  37.2056493  62.8276993  13.8701673  36.2476493
  62.1476993  13.7041673  36.6016493  53.5226993   2.6441673  40.1716493
  53.4086993   1.7801673  40.2026493  53.0476993   2.9381673  40.8416493
  53.4356993   2.5601673  40.2746493  55.6646993  15.0541673  48.3866493
  54.9666993  14.5461673  48.5126493  55.9246993  14.8491673  47.5786493
  55.5996993  14.9491673  48.2856493  62.8266993   3.8521673  38.9166493
  62.3186993   3.1901673  38.6626493  62.8786993   4.3561673  38.2066493
  62.7596993   3.8291673  38.7746493  63.3756993  16.5471673  49.2966493
  64.1436993  16.4671673  48.8906493  62.7926993  16.4261673  48.6586493
  63.4026993  16.5171673  49.1426493  61.4246993   3.1601673  43.3296493
  61.4986993   3.7281673  42.6716493  61.5456993   3.6521673  44.0396493
  61.4526993   3.3171673  43.3376493  57.0256993  13.9051673  50.9536493
  57.8666993  13.9681673  50.7316493  56.9886993  14.3021673  51.7296493
  57.1446993  13.9731673  51.0356493  58.9886993   9.4161673  45.7026493
  59.1606993   9.2061673  46.5316493  58.3336993   8.8821673  45.4866493
  58.9176993   9.3061673  45.7936493  65.2166993   3.3301673  49.2176493
  65.1216993   3.6491673  50.0236493  64.6236993   2.6911673  49.1796493
  65.1146993   3.2821673  49.3316493  59.7386993   9.3541673  48.2926493
  59.7916993  10.2011673  48.4946493  59.4536993   8.9841673  49.0296493
  59.7046993   9.4241673  48.4306493  52.5596993  13.7251673  54.5036493
  53.3156993  14.0741673  54.7616493  52.7366993  12.8721673  54.4466493
  52.6976993  13.6501673  54.5336493  56.4806993   2.7931673  43.3316493
  56.7526993   2.3631673  42.6236493  56.3046993   2.1571673  43.9026493
  56.4946993   2.6361673  43.3116493  56.3046993  10.2201673  42.8806493
  57.1556993  10.1401673  42.7076493  55.9476993   9.5381673  42.4686493
  56.3776993  10.1071673  42.7936493  55.0716993  16.9451673  44.1176493
  54.3986993  16.4471673  43.8726493  55.4746993  17.1301673  43.3666493
  55.0316993  16.8991673  43.9706493  54.6216993   3.8951673  46.4136493
  55.4646993   4.1151673  46.3706493  54.2326993   4.4681673  45.8826493
  54.6886993   4.0121673  46.3286493  58.6726993  10.2271673  41.1156493
  59.3856993  10.7221673  41.2056493  58.8946993   9.6601673  40.4896493
  58.8106993  10.2161673  41.0366493  52.8286993  11.8701673  44.4356493
  52.1616993  12.3581673  44.7116493  53.5086993  12.4151673  44.4646493
  52.8306993  12.0221673  44.4806493  60.4756993   5.5801673  54.5316493
  59.9916993   6.1571673  54.9736493  60.4476993   5.8751673  53.7106493
  60.3996993   5.7091673  54.4756493  52.8946993   8.5541673  39.5386493
  52.7096993   7.7151673  39.6906493  53.5536993   8.5181673  38.9686493
  52.9646993   8.4251673  39.4766493  63.1956993  13.9301673  43.4426493
  62.6726993  14.5641673  43.1496493  63.5056993  13.5661673  42.7136493
  63.1636993  13.9701673  43.2916493  53.0666993  12.7181673  39.1136493
  53.6186993  13.2871673  39.4776493  52.8346993  12.2031673  39.7786493
  53.1136993  12.7261673  39.2656493  57.2706993  11.7181673  46.2026493
  57.7376993  12.0071673  46.8806493  57.8426993  11.2401673  45.7486493
  57.4246993  11.6901673  46.2356493  52.8966993  11.1671673  36.7416493
  53.6526993  10.7351673  36.7996493  52.9116993  11.6991673  37.4326493
  53.0106993  11.1821673  36.8526493  53.8366993   9.3881673  44.7466493
  54.2676993   9.2591673  43.9996493  53.6316993  10.2361673  44.7206493
  53.8696993   9.4941673  44.6326493  60.1826993   2.9521673  38.3966493
  60.1806993   2.8351673  37.5316493  60.0016993   3.8001673  38.4886493
  60.1556993   3.0601673  38.2826493  57.9206993  12.9041673  43.0286493
  58.0466993  13.7471673  43.2156493  58.5886993  12.5051673  43.4246493
  58.0386993  12.9701673  43.1146493  56.0506993   6.3871673  52.8906493
  55.5146993   5.8811673  53.3586493  56.0706993   5.9971673  52.1106493
  55.9736993   6.2541673  52.8446493  56.5356993   5.7841673  38.0306493
  56.4076993   5.3361673  38.7686493  55.9536993   5.4421673  37.4786493
  56.4306993   5.6671673  38.0586493  56.7026993   7.6141673  44.6296493
  55.9216993   7.5551673  44.2466493  56.7746993   6.8621673  45.0666493
  56.5976993   7.4951673  44.6376493  57.1326993   7.3511673  48.0976493
  57.1576993   6.6761673  47.5466493  56.4866993   7.8471673  47.7856493
  57.0416993   7.3241673  47.9706493  61.2326993  16.1281673  47.4896493
  60.9556993  15.4871673  46.9666493  61.0246993  16.8541673  47.0516493
  61.1616993  16.1411673  47.3476493  54.9316993   8.7061673  53.6566493
  54.8946993   9.2071673  52.9426493  55.2626993   7.9541673  53.3616493
  54.9746993   8.6681673  53.5076493  60.8306993  13.7561673  53.0916493
  61.1846993  13.5781673  53.8686493  60.3946993  13.0271673  52.8926493
  60.8186993  13.6221673  53.1776493  61.8026993   4.5031673  45.7296493
  62.2826993   5.2021673  45.9376493  62.1756993   3.8561673  46.1806493
  61.9286993   4.5111673  45.8266493  63.9916993   7.6721673  38.0036493
  63.9836993   8.3941673  37.5136493  63.3526993   7.8071673  38.5806493
  63.8966993   7.7991673  38.0166493  65.0086993  14.6081673  45.8286493
  64.4056993  14.3121673  45.2716493  65.5536993  15.0601673  45.3196493
  64.9996993  14.6311673  45.6706493  65.0216993  11.4591673  45.2286493
  64.2246993  11.6831673  45.5026493  65.2796993  10.8651673  45.8136493
  64.9416993  11.4041673  45.3556493  58.9136993  16.2711673  39.6766493
  58.7666993  15.4951673  40.0476493  59.6026993  16.1241673  39.1616493
  58.9936993  16.1341673  39.6556493  61.2056993  15.7871673  38.0786493
  61.8276993  15.9501673  38.6686493  61.2416993  16.4781673  37.5466493
  61.3026993  15.9131673  38.0876493  64.4726993  14.8061673  54.3516493
  64.6366993  15.0891673  55.1606493  64.7356993  15.4671673  53.8466493
  64.5356993  14.9461673  54.3966493  55.7066993   8.3211673  38.9076493
  56.0306993   7.5421673  38.6856493  56.3526993   8.6891673  39.3626493
  55.8496993   8.2601673  38.9416493  64.0126993   9.2631673  49.6746493
  63.8576993   9.8731673  50.2786493  64.5466993   8.7051673  50.0806493
  64.0686993   9.2711673  49.8236493  62.3966993   7.6631673  40.3326493
  62.4556993   8.3131673  40.9116493  62.2076993   6.9671673  40.8236493
  62.3776993   7.6561673  40.4906493  56.8926993   2.1801673  36.8446493
  56.3816993   2.2331673  36.1386493  57.6766993   2.4201673  36.5486493
  56.9326993   2.2231673  36.6966493  61.6196993   9.7101673  44.7636493
  60.7726993   9.5161673  44.8446493  61.9436993   9.5451673  45.5566493
  61.5416993   9.6571673  44.8926493  58.3716993  16.4401673  35.6496493
  58.8106993  15.7431673  35.9376493  58.5786993  17.0641673  36.2226493
  58.4676993  16.4291673  35.7766493  55.4676993   9.4031673  47.0796493
  56.1896993   9.8911673  47.0426493  55.1976993   9.3731673  46.2506493
  55.5346993   9.4711673  46.9516493  58.6976993   4.5741673  43.8146493
  59.5436993   4.3841673  43.9126493  58.3276993   3.7971673  43.6766493
  58.7676993   4.4311673  43.8086493  53.5186993   5.9121673  40.4696493
  54.0076993   5.6201673  41.1306493  53.6476993   5.3191673  39.8426493
  53.6096993   5.7811673  40.4746493  58.0436993   7.3461673  35.9556493
  57.4336993   6.9411673  36.4296493  57.6576993   7.4641673  35.1826493
  57.8966993   7.3031673  35.9116493  54.8626993  10.4551673  51.3576493
  54.4416993   9.9371673  50.7966493  54.5106993  11.2411673  51.2146493
  54.7486993  10.4951673  51.2536493  59.4986993   5.8071673  38.6656493
  59.7706993   6.6331673  38.7326493  58.6356993   5.8821673  38.5696493
  59.4116993   5.9401673  38.6606493  52.9786993   1.7771673  45.2016493
  53.0226993   2.1211673  44.4006493  53.7336993   2.0141673  45.5686493
  53.0966993   1.8631673  45.1376493  64.9196993  11.1161673  36.6716493
  65.6036993  10.6021673  36.5026493  64.5026993  11.1621673  35.9066493
  64.9586993  11.0471673  36.5336493  59.6016993  12.2661673  47.9756493
  59.3036993  12.8581673  48.5426493  59.6566993  12.7081673  47.2266493
  59.5656993  12.4191673  47.9486493  57.5806993  11.2161673  51.3736493
  56.7746993  10.9261673  51.5406493  57.4916993  12.0841673  51.3796493
  57.4486993  11.3011673  51.3986493  62.1176993   8.6891673  47.4666493
  62.5936993   9.0631673  48.0946493  61.2946993   8.8231673  47.7256493
  62.0666993   8.7641673  47.5976493  58.8276993   4.2921673  50.2076493
  58.9886993   3.5481673  50.6346493  58.7826993   4.0431673  49.3726493
  58.8446993   4.1451673  50.1476493  61.3816993  16.0821673  42.6946493
  61.9276993  16.7611673  42.7486493  61.0316993  16.1641673  41.8996493
  61.4106993  16.1951673  42.5846493  59.5646993  14.3101673  46.0836493
  58.9406993  14.8921673  45.9016493  59.8126993  14.0241673  45.2976493
  59.5086993  14.3541673  45.9406493  63.8736993  10.9441673  53.0726493
  64.6306993  11.2301673  52.7466493  63.3266993  10.9961673  52.3946493
  63.9046993  10.9941673  52.9236493  61.1586993   9.0861673  35.9986493
  60.3536993   8.9091673  35.7136493  61.1256993   9.9371673  36.1906493
  61.0346993   9.1851673  35.9856493  57.0886993   5.1531673  46.1486493
  57.5286993   5.0501673  45.4026493  57.6336993   4.8401673  46.7536493
  57.2336993   5.0921673  46.1276493  64.7926993   5.7921673  48.0386493
  65.0946993   6.2121673  48.7416493  64.8286993   4.9521673  48.2706493
  64.8426993   5.7301673  48.1766493  62.2176993  15.9591673  51.9636493
  62.6956993  15.3591673  51.5476493  61.8666993  15.5161673  52.6286493
  62.2366993  15.8051673  52.0006493  62.2766993  11.1781673  50.9836493
  61.4816993  11.1141673  51.3346493  62.3476993  12.0251673  50.7886493
  62.1696993  11.2931673  51.0066493  58.1066993  17.3851673  46.3006493
  58.1176993  17.4441673  47.1706493  57.6816993  16.6381673  46.1506493
  58.0456993  17.2831673  46.4066493  56.2646993   3.2801673  39.4556493
  56.3906993   2.9511673  38.6576493  55.4526993   3.0311673  39.6546493
  56.1636993   3.1951673  39.3676493  65.0216993  10.4331673  42.4996493
  65.0976993  10.7741673  43.2986493  65.1906993   9.5861673  42.6206493
  65.0576993  10.3581673  42.6356493  62.5436993   9.7071673  42.0646493
  62.2456993   9.3921673  42.8216493  63.2386993  10.1801673  42.2996493
  62.6026993   9.7301673  42.2116493  62.7656993  13.8251673  50.0916493
  63.4526993  13.7111673  50.6166493  62.8996993  14.6161673  49.7476493
  62.8866993  13.9251673  50.1186493  54.8706993  16.8831673  51.7426493
  54.2166993  16.3141673  51.8406493  54.4956993  17.6561673  51.8936493
  54.7186993  16.9131673  51.7796493  63.3886993   8.2891673  53.6656493
  63.7116993   8.9751673  53.2336493  62.6846993   8.6121673  54.0676493
  63.3316993   8.4381673  53.6606493  63.1736993  11.7531673  47.5246493
  62.4796993  12.1551673  47.8676493  63.8506993  12.1861673  47.8636493
  63.1706993  11.8761673  47.6256493  56.2416993   5.2911673  49.8716493
  56.6166993   5.9101673  49.3846493  56.9156993   4.8171673  50.1566493
  56.3966993   5.3131673  49.8416493  54.0166993   3.7391673  49.1466493
  54.0936993   3.5701673  48.2936493  54.7626993   4.1451673  49.3436493
  54.1376993   3.7741673  49.0496493  63.4956993  13.3441673  40.6936493
  63.2906993  14.1771673  40.5346493  62.7206993  12.9621673  40.8156493
  63.3506993  13.4111673  40.6886493  53.4136993   8.9651673  49.3706493
  53.7336993   9.1841673  48.5896493  53.3136993   8.1001673  49.3156493
  53.4456993   8.8701673  49.2476493  54.8696993   4.9011673  35.9886493
  54.1976993   4.9151673  36.5446493  54.9646993   4.0531673  35.8046493
  54.7846993   4.7781673  36.0436493  58.8576993  13.6061673  37.1026493
  59.2986993  13.6861673  37.8506493  58.0526993  13.3901673  37.3606493
  58.8036993  13.5861673  37.2516493  58.1766993   8.2571673  50.7556493
  57.7806993   9.0311673  50.8306493  57.7706993   7.8841673  50.0796493
  58.0586993   8.3161673  50.6666493  56.1866993  12.6761673  37.7036493
  55.9426993  12.3691673  38.4836493  56.1536993  11.9731673  37.1876493
  56.1456993  12.5271673  37.7426493  59.0056993  10.9211673  36.4466493
  58.1876993  10.6531673  36.5866493  58.9776993  11.7731673  36.6316493
  58.8806993  11.0081673  36.4946493  65.4406993  12.8301673  48.3676493
  65.6466993  13.1311673  49.1596493  65.3796993  13.5521673  47.8826493
  65.4616993  12.9811673  48.4126493  64.9746993  17.0441673  52.6136493
  64.2216993  17.0261673  52.1726493  65.1426993  17.8961673  52.6976493
  64.8886993  17.1671673  52.5606493  60.2116993   6.3111673  51.7836493
  59.8896993   5.7351673  51.2136493  59.8526993   7.0661673  51.5376493
  60.1116993   6.3371673  51.6636493  58.6466993  16.6671673  52.0316493
  58.6876993  16.7931673  52.8946493  59.2976993  16.1071673  51.8756493
  58.7486993  16.6031673  52.1366493  56.2396993  15.0501673  53.3916493
  56.8346993  15.4811673  53.8636493  55.8756993  15.6741673  52.9026493
  56.2736993  15.2061673  53.3886493  64.2306993   5.9811673  43.3236493
  64.7816993   5.3741673  43.6236493  63.8056993   6.2441673  44.0386493
  64.2496993   5.9301673  43.4726493  54.4786993   4.6311673  42.8096493
  54.1106993   4.9331673  43.5406493  55.0126993   4.0021673  43.0936493
  54.5026993   4.5831673  42.9596493  54.1666993  13.0391673  50.3206493
  53.5926993  13.4551673  50.8296493  54.8996993  13.5041673  50.4156493
  54.1906993  13.1691673  50.4096493  55.9526993  16.3061673  39.0956493
  55.8076993  16.4621673  38.2496493  56.8186993  16.3851673  39.1736493
  56.0596993  16.3411673  38.9826493  60.1196993   8.7031673  38.8236493
  60.2196993   8.8421673  37.9686493  60.9376993   8.6431673  39.1196493
  60.2546993   8.7141673  38.7406493  65.3546993  13.0321673  38.6256493
  65.1036993  12.9041673  39.4516493  65.0376993  12.3371673  38.2046493
  65.2706993  12.9111673  38.6856493  56.6396993  15.1211673  45.5726493
  56.5606993  14.3111673  45.2566493  56.1956993  15.6081673  45.0006493
  56.5626993  15.0731673  45.4416493  62.2406993  11.2401673  38.0556493
  62.9576993  10.8931673  37.6996493  62.2066993  12.0401673  37.7076493
  62.3416993  11.3071673  37.9516493  54.2116993  17.3651673  49.1536493
  54.7046993  17.3091673  49.8716493  54.3996993  16.6321673  48.7186493
  54.3126993  17.2481673  49.1956493  63.4586993   6.7971673  26.9654083
  62.9346993   7.3931673  27.3284083  63.8556993   6.4291673  27.6494083
  63.4396993   6.8311673  27.1204083  53.3276993  10.9371673  22.4214083
  52.8866993  11.0551673  23.1644083  53.0446993  10.1621673  22.1364083
  53.2206993  10.8401673  22.4894083  53.0706993   4.7291673  18.9284083
  52.2926993   4.8911673  18.5684083  53.1096993   3.8581673  18.9504083
  52.9616993   4.6241673  18.8784083  56.2096993   9.9921673  17.6004083
  55.8176993   9.6211673  16.9144083  56.1296993   9.3941673  18.2294083
  56.1396993   9.8491673  17.5914083  55.8366993  11.6331673  21.5004083
  56.4446993  11.4631673  22.1034083  55.0856993  11.4931673  21.9214083
  55.8156993  11.5871673  21.6514083  54.7276993  14.7241673  17.5774083
  55.1946993  14.8081673  16.8454083  55.1826993  14.1461673  18.0464083
  54.8636993  14.6511673  17.5384083  53.2676993  13.6721673  28.6764083
  53.3966993  13.3921673  29.4924083  52.6576993  13.1311673  28.3674083
  53.1966993  13.5511673  28.7514083  59.8416993  11.1971673  33.7434083
  59.6056993  11.1941673  34.5834083  59.0936993  11.0491673  33.3194083
  59.6956993  11.1741673  33.8044083  54.7136993   8.1931673  22.8784083
  54.2516993   7.8011673  22.2514083  55.4136993   7.6801673  22.9704083
  54.7486993   8.0601673  22.7994083  59.2216993   3.8031673  28.2254083
  59.8996993   3.8211673  27.6764083  59.1766993   2.9671673  28.4704083
  59.3146993   3.6821673  28.1804083  59.8236993  14.3891673  31.0064083
  59.9616993  15.1491673  30.5994083  60.6146993  14.0241673  31.0334083
  59.9606993  14.4481673  30.9504083  56.7146993   6.2931673  22.9014083
  57.5316993   6.1061673  23.1444083  56.2376993   5.6791673  23.2974083
  56.7646993   6.1751673  22.9964083  60.9186993  12.2741673  25.5114083
  61.2666993  11.4751673  25.5414083  61.5836993  12.7781673  25.2564083
  61.0686993  12.2301673  25.4784083  60.9756993  11.7231673  21.7224083
  61.3066993  11.0791673  22.2084083  61.2156993  11.5121673  20.9114083
  61.0596993  11.5971673  21.6744083  62.9436993   5.8541673  33.0614083
  62.0956993   5.7551673  32.8834083  62.9726993   6.5991673  33.5154083
  62.8226993   5.9501673  33.1024083  64.9636993   3.4551673  16.6894083
  64.5136993   4.1361673  16.9964083  65.0776993   2.9511673  17.3924083
  64.9146993   3.4811673  16.8384083  53.1696993   5.9541673  25.8914083
  52.9136993   6.7851673  25.8164083  52.5056993   5.5711673  26.3084083
  53.0336993   6.0201673  25.9424083  53.0796993  15.6641673  23.7914083
  52.4876993  16.2221673  23.4784083  53.5056993  15.3951673  23.0794083
  53.0556993  15.7061673  23.6404083  58.9196993  13.5081673  21.2714083
  58.3406993  13.2331673  21.8634083  59.5436993  12.8991673  21.2964083
  58.9266993  13.3781673  21.3624083  63.2306993  16.1881673  20.7834083
  63.4446993  16.7151673  21.4454083  63.9976993  16.0141673  20.4044083
  63.3756993  16.2401673  20.8254083  59.5046993   2.9041673  35.6804083
  59.6216993   2.4501673  34.9444083  59.7926993   3.7021673  35.4774083
  59.5646993   2.9551673  35.5414083  54.6246993  14.3341673  21.7224083
  55.2806993  13.7591673  21.7374083  55.0136993  15.0831673  21.5014083
  54.7796993  14.3591673  21.6924083  55.2376993   2.5011673  34.6644083
  54.4596993   2.1111673  34.5924083  55.7286993   2.0891673  34.0734083
  55.1946993   2.3821673  34.5664083  55.4426993  12.8211673  25.2224083
  55.8656993  12.4651673  24.5484083  55.7666993  12.3991673  25.9144083
  55.5526993  12.7061673  25.2254083  58.6736993  15.6731673  24.5184083
  59.5176993  15.7771673  24.3234083  58.3766993  16.4911673  24.5864083
  58.7546993  15.8091673  24.4994083  62.4806993   5.0701673  22.6054083
  62.7676993   4.8381673  21.8154083  63.2126993   5.1491673  23.0744083
  62.6306993   5.0471673  22.5584083  63.2026993   5.4091673  17.7264083
  63.4836993   6.1971673  17.9754083  62.4266993   5.5741673  17.3634083
  63.1296993   5.5501673  17.7094083  57.6716993  16.8921673  30.2584083
  57.9636993  16.8251673  31.0784083  57.0456993  16.2871673  30.2134083
  57.6226993  16.7931673  30.3734083  52.5856993   3.0491673  32.2504083
  52.5816993   3.6361673  32.8964083  53.1796993   3.3611673  31.6934083
  52.6726993   3.1821673  32.2634083  62.0616993  13.5801673  17.5424083
  61.8806993  14.1251673  18.1994083  62.8276993  13.8701673  17.2414083
  62.1476993  13.7041673  17.5954083  53.5226993   2.6441673  21.1654083
  53.4086993   1.7801673  21.1964083  53.0476993   2.9381673  21.8354083
  53.4356993   2.5601673  21.2684083  55.6646993  15.0541673  29.3804083
  54.9666993  14.5461673  29.5064083  55.9246993  14.8491673  28.5724083
  55.5996993  14.9491673  29.2794083  62.8266993   3.8521673  19.9104083
  62.3186993   3.1901673  19.6564083  62.8786993   4.3561673  19.2004083
  62.7596993   3.8291673  19.7684083  63.3756993  16.5471673  30.2904083
  64.1436993  16.4671673  29.8844083  62.7926993  16.4261673  29.6524083
  63.4026993  16.5171673  30.1364083  61.4246993   3.1601673  24.3234083
  61.4986993   3.7281673  23.6654083  61.5456993   3.6521673  25.0334083
  61.4526993   3.3171673  24.3314083  57.0256993  13.9051673  31.9474083
  57.8666993  13.9681673  31.7254083  56.9886993  14.3021673  32.7234083
  57.1446993  13.9731673  32.0294083  58.9886993   9.4161673  26.6964083
  59.1606993   9.2061673  27.5254083  58.3336993   8.8821673  26.4804083
  58.9176993   9.3061673  26.7874083  65.2166993   3.3301673  30.2114083
  65.1216993   3.6491673  31.0174083  64.6236993   2.6911673  30.1734083
  65.1146993   3.2821673  30.3254083  59.7386993   9.3541673  29.2864083
  59.7916993  10.2011673  29.4884083  59.4536993   8.9841673  30.0234083
  59.7046993   9.4241673  29.4244083  52.5596993  13.7251673  35.4974083
  53.3156993  14.0741673  35.7554083  52.7366993  12.8721673  35.4404083
  52.6976993  13.6501673  35.5274083  56.4806993   2.7931673  24.3254083
  56.7526993   2.3631673  23.6174083  56.3046993   2.1571673  24.8964083
  56.4946993   2.6361673  24.3054083  56.3046993  10.2201673  23.8744083
  57.1556993  10.1401673  23.7014083  55.9476993   9.5381673  23.4624083
  56.3776993  10.1071673  23.7874083  55.0716993  16.9451673  25.1114083
  54.3986993  16.4471673  24.8664083  55.4746993  17.1301673  24.3604083
  55.0316993  16.8991673  24.9644083  54.6216993   3.8951673  27.4074083
  55.4646993   4.1151673  27.3644083  54.2326993   4.4681673  26.8764083
  54.6886993   4.0121673  27.3224083  58.6726993  10.2271673  22.1094083
  59.3856993  10.7221673  22.1994083  58.8946993   9.6601673  21.4834083
  58.8106993  10.2161673  22.0304083  52.8286993  11.8701673  25.4294083
  52.1616993  12.3581673  25.7054083  53.5086993  12.4151673  25.4584083
  52.8306993  12.0221673  25.4744083  60.4756993   5.5801673  35.5254083
  59.9916993   6.1571673  35.9674083  60.4476993   5.8751673  34.7044083
  60.3996993   5.7091673  35.4694083  52.8946993   8.5541673  20.5324083
  52.7096993   7.7151673  20.6844083  53.5536993   8.5181673  19.9624083
  52.9646993   8.4251673  20.4704083  63.1956993  13.9301673  24.4364083
  62.6726993  14.5641673  24.1434083  63.5056993  13.5661673  23.7074083
  63.1636993  13.9701673  24.2854083  53.0666993  12.7181673  20.1074083
  53.6186993  13.2871673  20.4714083  52.8346993  12.2031673  20.7724083
  53.1136993  12.7261673  20.2594083  57.2706993  11.7181673  27.1964083
  57.7376993  12.0071673  27.8744083  57.8426993  11.2401673  26.7424083
  57.4246993  11.6901673  27.2294083  52.8966993  11.1671673  17.7354083
  53.6526993  10.7351673  17.7934083  52.9116993  11.6991673  18.4264083
  53.0106993  11.1821673  17.8464083  53.8366993   9.3881673  25.7404083
  54.2676993   9.2591673  24.9934083  53.6316993  10.2361673  25.7144083
  53.8696993   9.4941673  25.6264083  60.1826993   2.9521673  19.3904083
  60.1806993   2.8351673  18.5254083  60.0016993   3.8001673  19.4824083
  60.1556993   3.0601673  19.2764083  57.9206993  12.9041673  24.0224083
  58.0466993  13.7471673  24.2094083  58.5886993  12.5051673  24.4184083
  58.0386993  12.9701673  24.1084083  56.0506993   6.3871673  33.8844083
  55.5146993   5.8811673  34.3524083  56.0706993   5.9971673  33.1044083
  55.9736993   6.2541673  33.8384083  56.5356993   5.7841673  19.0244083
  56.4076993   5.3361673  19.7624083  55.9536993   5.4421673  18.4724083
  56.4306993   5.6671673  19.0524083  56.7026993   7.6141673  25.6234083
  55.9216993   7.5551673  25.2404083  56.7746993   6.8621673  26.0604083
  56.5976993   7.4951673  25.6314083  57.1326993   7.3511673  29.0914083
  57.1576993   6.6761673  28.5404083  56.4866993   7.8471673  28.7794083
  57.0416993   7.3241673  28.9644083  61.2326993  16.1281673  28.4834083
  60.9556993  15.4871673  27.9604083  61.0246993  16.8541673  28.0454083
  61.1616993  16.1411673  28.3414083  54.9316993   8.7061673  34.6504083
  54.8946993   9.2071673  33.9364083  55.2626993   7.9541673  34.3554083
  54.9746993   8.6681673  34.5014083  60.8306993  13.7561673  34.0854083
  61.1846993  13.5781673  34.8624083  60.3946993  13.0271673  33.8864083
  60.8186993  13.6221673  34.1714083  61.8026993   4.5031673  26.7234083
  62.2826993   5.2021673  26.9314083  62.1756993   3.8561673  27.1744083
  61.9286993   4.5111673  26.8204083  63.9916993   7.6721673  18.9974083
  63.9836993   8.3941673  18.5074083  63.3526993   7.8071673  19.5744083
  63.8966993   7.7991673  19.0104083  65.0086993  14.6081673  26.8224083
  64.4056993  14.3121673  26.2654083  65.5536993  15.0601673  26.3134083
  64.9996993  14.6311673  26.6644083  65.0216993  11.4591673  26.2224083
  64.2246993  11.6831673  26.4964083  65.2796993  10.8651673  26.8074083
  64.9416993  11.4041673  26.3494083  58.9136993  16.2711673  20.6704083
  58.7666993  15.4951673  21.0414083  59.6026993  16.1241673  20.1554083
  58.9936993  16.1341673  20.6494083  61.2056993  15.7871673  19.0724083
  61.8276993  15.9501673  19.6624083  61.2416993  16.4781673  18.5404083
  61.3026993  15.9131673  19.0814083  64.4726993  14.8061673  35.3454083
  64.6366993  15.0891673  36.1544083  64.7356993  15.4671673  34.8404083
  64.5356993  14.9461673  35.3904083  55.7066993   8.3211673  19.9014083
  56.0306993   7.5421673  19.6794083  56.3526993   8.6891673  20.3564083
  55.8496993   8.2601673  19.9354083  64.0126993   9.2631673  30.6684083
  63.8576993   9.8731673  31.2724083  64.5466993   8.7051673  31.0744083
  64.0686993   9.2711673  30.8174083  62.3966993   7.6631673  21.3264083
  62.4556993   8.3131673  21.9054083  62.2076993   6.9671673  21.8174083
  62.3776993   7.6561673  21.4844083  56.8926993   2.1801673  17.8384083
  56.3816993   2.2331673  17.1324083  57.6766993   2.4201673  17.5424083
  56.9326993   2.2231673  17.6904083  61.6196993   9.7101673  25.7574083
  60.7726993   9.5161673  25.8384083  61.9436993   9.5451673  26.5504083
  61.5416993   9.6571673  25.8864083  58.3716993  16.4401673  16.6434083
  58.8106993  15.7431673  16.9314083  58.5786993  17.0641673  17.2164083
  58.4676993  16.4291673  16.7704083  55.4676993   9.4031673  28.0734083
  56.1896993   9.8911673  28.0364083  55.1976993   9.3731673  27.2444083
  55.5346993   9.4711673  27.9454083  58.6976993   4.5741673  24.8084083
  59.5436993   4.3841673  24.9064083  58.3276993   3.7971673  24.6704083
  58.7676993   4.4311673  24.8024083  53.5186993   5.9121673  21.4634083
  54.0076993   5.6201673  22.1244083  53.6476993   5.3191673  20.8364083
  53.6096993   5.7811673  21.4684083  58.0436993   7.3461673  16.9494083
  57.4336993   6.9411673  17.4234083  57.6576993   7.4641673  16.1764083
  57.8966993   7.3031673  16.9054083  54.8626993  10.4551673  32.3514083
  54.4416993   9.9371673  31.7904083  54.5106993  11.2411673  32.2084083
  54.7486993  10.4951673  32.2474083  59.4986993   5.8071673  19.6594083
  59.7706993   6.6331673  19.7264083  58.6356993   5.8821673  19.5634083
  59.4116993   5.9401673  19.6544083  52.9786993   1.7771673  26.1954083
  53.0226993   2.1211673  25.3944083  53.7336993   2.0141673  26.5624083
  53.0966993   1.8631673  26.1314083  64.9196993  11.1161673  17.6654083
  65.6036993  10.6021673  17.4964083  64.5026993  11.1621673  16.9004083
  64.9586993  11.0471673  17.5274083  59.6016993  12.2661673  28.9694083
  59.3036993  12.8581673  29.5364083  59.6566993  12.7081673  28.2204083
  59.5656993  12.4191673  28.9424083  57.5806993  11.2161673  32.3674083
  56.7746993  10.9261673  32.5344083  57.4916993  12.0841673  32.3734083
  57.4486993  11.3011673  32.3924083  62.1176993   8.6891673  28.4604083
  62.5936993   9.0631673  29.0884083  61.2946993   8.8231673  28.7194083
  62.0666993   8.7641673  28.5914083  58.8276993   4.2921673  31.2014083
  58.9886993   3.5481673  31.6284083  58.7826993   4.0431673  30.3664083
  58.8446993   4.1451673  31.1414083  61.3816993  16.0821673  23.6884083
  61.9276993  16.7611673  23.7424083  61.0316993  16.1641673  22.8934083
  61.4106993  16.1951673  23.5784083  59.5646993  14.3101673  27.0774083
  58.9406993  14.8921673  26.8954083  59.8126993  14.0241673  26.2914083
  59.5086993  14.3541673  26.9344083  63.8736993  10.9441673  34.0664083
  64.6306993  11.2301673  33.7404083  63.3266993  10.9961673  33.3884083
  63.9046993  10.9941673  33.9174083  61.1586993   9.0861673  16.9924083
  60.3536993   8.9091673  16.7074083  61.1256993   9.9371673  17.1844083
  61.0346993   9.1851673  16.9794083  57.0886993   5.1531673  27.1424083
  57.5286993   5.0501673  26.3964083  57.6336993   4.8401673  27.7474083
  57.2336993   5.0921673  27.1214083  64.7926993   5.7921673  29.0324083
  65.0946993   6.2121673  29.7354083  64.8286993   4.9521673  29.2644083
  64.8426993   5.7301673  29.1704083  62.2176993  15.9591673  32.9574083
  62.6956993  15.3591673  32.5414083  61.8666993  15.5161673  33.6224083
  62.2366993  15.8051673  32.9944083  62.2766993  11.1781673  31.9774083
  61.4816993  11.1141673  32.3284083  62.3476993  12.0251673  31.7824083
  62.1696993  11.2931673  32.0004083  58.1066993  17.3851673  27.2944083
  58.1176993  17.4441673  28.1644083  57.6816993  16.6381673  27.1444083
  58.0456993  17.2831673  27.4004083  56.2646993   3.2801673  20.4494083
  56.3906993   2.9511673  19.6514083  55.4526993   3.0311673  20.6484083
  56.1636993   3.1951673  20.3614083  65.0216993  10.4331673  23.4934083
  65.0976993  10.7741673  24.2924083  65.1906993   9.5861673  23.6144083
  65.0576993  10.3581673  23.6294083  62.5436993   9.7071673  23.0584083
  62.2456993   9.3921673  23.8154083  63.2386993  10.1801673  23.2934083
  62.6026993   9.7301673  23.2054083  62.7656993  13.8251673  31.0854083
  63.4526993  13.7111673  31.6104083  62.8996993  14.6161673  30.7414083
  62.8866993  13.9251673  31.1124083  54.8706993  16.8831673  32.7364083
  54.2166993  16.3141673  32.8344083  54.4956993  17.6561673  32.8874083
  54.7186993  16.9131673  32.7734083  63.3886993   8.2891673  34.6594083
  63.7116993   8.9751673  34.2274083  62.6846993   8.6121673  35.0614083
  63.3316993   8.4381673  34.6544083  63.1736993  11.7531673  28.5184083
  62.4796993  12.1551673  28.8614083  63.8506993  12.1861673  28.8574083
  63.1706993  11.8761673  28.6194083  56.2416993   5.2911673  30.8654083
  56.6166993   5.9101673  30.3784083  56.9156993   4.8171673  31.1504083
  56.3966993   5.3131673  30.8354083  54.0166993   3.7391673  30.1404083
  54.0936993   3.5701673  29.2874083  54.7626993   4.1451673  30.3374083
  54.1376993   3.7741673  30.0434083  63.4956993  13.3441673  21.6874083
  63.2906993  14.1771673  21.5284083  62.7206993  12.9621673  21.8094083
  63.3506993  13.4111673  21.6824083  53.4136993   8.9651673  30.3644083
  53.7336993   9.1841673  29.5834083  53.3136993   8.1001673  30.3094083
  53.4456993   8.8701673  30.2414083  54.8696993   4.9011673  16.9824083
  54.1976993   4.9151673  17.5384083  54.9646993   4.0531673  16.7984083
  54.7846993   4.7781673  17.0374083  58.8576993  13.6061673  18.0964083
  59.2986993  13.6861673  18.8444083  58.0526993  13.3901673  18.3544083
  58.8036993  13.5861673  18.2454083  58.1766993   8.2571673  31.7494083
  57.7806993   9.0311673  31.8244083  57.7706993   7.8841673  31.0734083
  58.0586993   8.3161673  31.6604083  56.1866993  12.6761673  18.6974083
  55.9426993  12.3691673  19.4774083  56.1536993  11.9731673  18.1814083
  56.1456993  12.5271673  18.7364083  59.0056993  10.9211673  17.4404083
  58.1876993  10.6531673  17.5804083  58.9776993  11.7731673  17.6254083
  58.8806993  11.0081673  17.4884083  65.4406993  12.8301673  29.3614083
  65.6466993  13.1311673  30.1534083  65.3796993  13.5521673  28.8764083
  65.4616993  12.9811673  29.4064083  64.9746993  17.0441673  33.6074083
  64.2216993  17.0261673  33.1664083  65.1426993  17.8961673  33.6914083
  64.8886993  17.1671673  33.5544083  60.2116993   6.3111673  32.7774083
  59.8896993   5.7351673  32.2074083  59.8526993   7.0661673  32.5314083
  60.1116993   6.3371673  32.6574083  58.6466993  16.6671673  33.0254083
  58.6876993  16.7931673  33.8884083  59.2976993  16.1071673  32.8694083
  58.7486993  16.6031673  33.1304083  56.2396993  15.0501673  34.3854083
  56.8346993  15.4811673  34.8574083  55.8756993  15.6741673  33.8964083
  56.2736993  15.2061673  34.3824083  64.2306993   5.9811673  24.3174083
  64.7816993   5.3741673  24.6174083  63.8056993   6.2441673  25.0324083
  64.2496993   5.9301673  24.4664083  54.4786993   4.6311673  23.8034083
  54.1106993   4.9331673  24.5344083  55.0126993   4.0021673  24.0874083
  54.5026993   4.5831673  23.9534083  54.1666993  13.0391673  31.3144083
  53.5926993  13.4551673  31.8234083  54.8996993  13.5041673  31.4094083
  54.1906993  13.1691673  31.4034083  55.9526993  16.3061673  20.0894083
  55.8076993  16.4621673  19.2434083  56.8186993  16.3851673  20.1674083
  56.0596993  16.3411673  19.9764083  60.1196993   8.7031673  19.8174083
  60.2196993   8.8421673  18.9624083  60.9376993   8.6431673  20.1134083
  60.2546993   8.7141673  19.7344083  65.3546993  13.0321673  19.6194083
  65.1036993  12.9041673  20.4454083  65.0376993  12.3371673  19.1984083
  65.2706993  12.9111673  19.6794083  56.6396993  15.1211673  26.5664083
  56.5606993  14.3111673  26.2504083  56.1956993  15.6081673  25.9944083
  56.5626993  15.0731673  26.4354083  62.2406993  11.2401673  19.0494083
  62.9576993  10.8931673  18.6934083  62.2066993  12.0401673  18.7014083
  62.3416993  11.3071673  18.9454083  54.2116993  17.3651673  30.1474083
  54.7046993  17.3091673  30.8654083  54.3996993  16.6321673  29.7124083
  54.3126993  17.2481673  30.1894083  63.4586993   6.7971673   7.9591673
  62.9346993   7.3931673   8.3221673  63.8556993   6.4291673   8.6431673
  63.4396993   6.8311673   8.1141673  53.3276993  10.9371673   3.4151673
  52.8866993  11.0551673   4.1581673  53.0446993  10.1621673   3.1301673
  53.2206993  10.8401673   3.4831673  55.8366993  11.6331673   2.4941673
  56.4446993  11.4631673   3.0971673  55.0856993  11.4931673   2.9151673
  55.8156993  11.5871673   2.6451673  53.2676993  13.6721673   9.6701673
  53.3966993  13.3921673  10.4861673  52.6576993  13.1311673   9.3611673
  53.1966993  13.5511673   9.7451673  59.8416993  11.1971673  14.7371673
  59.6056993  11.1941673  15.5771673  59.0936993  11.0491673  14.3131673
  59.6956993  11.1741673  14.7981673  54.7136993   8.1931673   3.8721673
  54.2516993   7.8011673   3.2451673  55.4136993   7.6801673   3.9641673
  54.7486993   8.0601673   3.7931673  59.2216993   3.8031673   9.2191673
  59.8996993   3.8211673   8.6701673  59.1766993   2.9671673   9.4641673
  59.3146993   3.6821673   9.1741673  59.8236993  14.3891673  12.0001673
  59.9616993  15.1491673  11.5931673  60.6146993  14.0241673  12.0271673
  59.9606993  14.4481673  11.9441673  56.7146993   6.2931673   3.8951673
  57.5316993   6.1061673   4.1381673  56.2376993   5.6791673   4.2911673
  56.7646993   6.1751673   3.9901673  60.9186993  12.2741673   6.5051673
  61.2666993  11.4751673   6.5351673  61.5836993  12.7781673   6.2501673
  61.0686993  12.2301673   6.4721673  60.9756993  11.7231673   2.7161673
  61.3066993  11.0791673   3.2021673  61.2156993  11.5121673   1.9051673
  61.0596993  11.5971673   2.6681673  62.9436993   5.8541673  14.0551673
  62.0956993   5.7551673  13.8771673  62.9726993   6.5991673  14.5091673
  62.8226993   5.9501673  14.0961673  53.1696993   5.9541673   6.8851673
  52.9136993   6.7851673   6.8101673  52.5056993   5.5711673   7.3021673
  53.0336993   6.0201673   6.9361673  53.0796993  15.6641673   4.7851673
  52.4876993  16.2221673   4.4721673  53.5056993  15.3951673   4.0731673
  53.0556993  15.7061673   4.6341673  58.9196993  13.5081673   2.2651673
  58.3406993  13.2331673   2.8571673  59.5436993  12.8991673   2.2901673
  58.9266993  13.3781673   2.3561673  63.2306993  16.1881673   1.7771673
  63.4446993  16.7151673   2.4391673  63.9976993  16.0141673   1.3981673
  63.3756993  16.2401673   1.8191673  59.5046993   2.9041673  16.6741673
  59.6216993   2.4501673  15.9381673  59.7926993   3.7021673  16.4711673
  59.5646993   2.9551673  16.5351673  54.6246993  14.3341673   2.7161673
  55.2806993  13.7591673   2.7311673  55.0136993  15.0831673   2.4951673
  54.7796993  14.3591673   2.6861673  55.2376993   2.5011673  15.6581673
  54.4596993   2.1111673  15.5861673  55.7286993   2.0891673  15.0671673
  55.1946993   2.3821673  15.5601673  55.4426993  12.8211673   6.2161673
  55.8656993  12.4651673   5.5421673  55.7666993  12.3991673   6.9081673
  55.5526993  12.7061673   6.2191673  58.6736993  15.6731673   5.5121673
  59.5176993  15.7771673   5.3171673  58.3766993  16.4911673   5.5801673
  58.7546993  15.8091673   5.4931673  62.4806993   5.0701673   3.5991673
  62.7676993   4.8381673   2.8091673  63.2126993   5.1491673   4.0681673
  62.6306993   5.0471673   3.5521673  57.6716993  16.8921673  11.2521673
  57.9636993  16.8251673  12.0721673  57.0456993  16.2871673  11.2071673
  57.6226993  16.7931673  11.3671673  52.5856993   3.0491673  13.2441673
  52.5816993   3.6361673  13.8901673  53.1796993   3.3611673  12.6871673
  52.6726993   3.1821673  13.2571673  53.5226993   2.6441673   2.1591673
  53.4086993   1.7801673   2.1901673  53.0476993   2.9381673   2.8291673
  53.4356993   2.5601673   2.2621673  55.6646993  15.0541673  10.3741673
  54.9666993  14.5461673  10.5001673  55.9246993  14.8491673   9.5661673
  55.5996993  14.9491673  10.2731673  63.3756993  16.5471673  11.2841673
  64.1436993  16.4671673  10.8781673  62.7926993  16.4261673  10.6461673
  63.4026993  16.5171673  11.1301673  61.4246993   3.1601673   5.3171673
  61.4986993   3.7281673   4.6591673  61.5456993   3.6521673   6.0271673
  61.4526993   3.3171673   5.3251673  57.0256993  13.9051673  12.9411673
  57.8666993  13.9681673  12.7191673  56.9886993  14.3021673  13.7171673
  57.1446993  13.9731673  13.0231673  58.9886993   9.4161673   7.6901673
  59.1606993   9.2061673   8.5191673  58.3336993   8.8821673   7.4741673
  58.9176993   9.3061673   7.7811673  65.2166993   3.3301673  11.2051673
  65.1216993   3.6491673  12.0111673  64.6236993   2.6911673  11.1671673
  65.1146993   3.2821673  11.3191673  59.7386993   9.3541673  10.2801673
  59.7916993  10.2011673  10.4821673  59.4536993   8.9841673  11.0171673
  59.7046993   9.4241673  10.4181673  52.5596993  13.7251673  16.4911673
  53.3156993  14.0741673  16.7491673  52.7366993  12.8721673  16.4341673
  52.6976993  13.6501673  16.5211673  56.4806993   2.7931673   5.3191673
  56.7526993   2.3631673   4.6111673  56.3046993   2.1571673   5.8901673
  56.4946993   2.6361673   5.2991673  56.3046993  10.2201673   4.8681673
  57.1556993  10.1401673   4.6951673  55.9476993   9.5381673   4.4561673
  56.3776993  10.1071673   4.7811673  55.0716993  16.9451673   6.1051673
  54.3986993  16.4471673   5.8601673  55.4746993  17.1301673   5.3541673
  55.0316993  16.8991673   5.9581673  54.6216993   3.8951673   8.4011673
  55.4646993   4.1151673   8.3581673  54.2326993   4.4681673   7.8701673
  54.6886993   4.0121673   8.3161673  58.6726993  10.2271673   3.1031673
  59.3856993  10.7221673   3.1931673  58.8946993   9.6601673   2.4771673
  58.8106993  10.2161673   3.0241673  52.8286993  11.8701673   6.4231673
  52.1616993  12.3581673   6.6991673  53.5086993  12.4151673   6.4521673
  52.8306993  12.0221673   6.4681673  60.4756993   5.5801673  16.5191673
  59.9916993   6.1571673  16.9611673  60.4476993   5.8751673  15.6981673
  60.3996993   5.7091673  16.4631673  63.1956993  13.9301673   5.4301673
  62.6726993  14.5641673   5.1371673  63.5056993  13.5661673   4.7011673
  63.1636993  13.9701673   5.2791673  57.2706993  11.7181673   8.1901673
  57.7376993  12.0071673   8.8681673  57.8426993  11.2401673   7.7361673
  57.4246993  11.6901673   8.2231673  53.8366993   9.3881673   6.7341673
  54.2676993   9.2591673   5.9871673  53.6316993  10.2361673   6.7081673
  53.8696993   9.4941673   6.6201673  57.9206993  12.9041673   5.0161673
  58.0466993  13.7471673   5.2031673  58.5886993  12.5051673   5.4121673
  58.0386993  12.9701673   5.1021673  56.0506993   6.3871673  14.8781673
  55.5146993   5.8811673  15.3461673  56.0706993   5.9971673  14.0981673
  55.9736993   6.2541673  14.8321673  56.7026993   7.6141673   6.6171673
  55.9216993   7.5551673   6.2341673  56.7746993   6.8621673   7.0541673
  56.5976993   7.4951673   6.6251673  57.1326993   7.3511673  10.0851673
  57.1576993   6.6761673   9.5341673  56.4866993   7.8471673   9.7731673
  57.0416993   7.3241673   9.9581673  61.2326993  16.1281673   9.4771673
  60.9556993  15.4871673   8.9541673  61.0246993  16.8541673   9.0391673
  61.1616993  16.1411673   9.3351673  54.9316993   8.7061673  15.6441673
  54.8946993   9.2071673  14.9301673  55.2626993   7.9541673  15.3491673
  54.9746993   8.6681673  15.4951673  60.8306993  13.7561673  15.0791673
  61.1846993  13.5781673  15.8561673  60.3946993  13.0271673  14.8801673
  60.8186993  13.6221673  15.1651673  61.8026993   4.5031673   7.7171673
  62.2826993   5.2021673   7.9251673  62.1756993   3.8561673   8.1681673
  61.9286993   4.5111673   7.8141673  65.0086993  14.6081673   7.8161673
  64.4056993  14.3121673   7.2591673  65.5536993  15.0601673   7.3071673
  64.9996993  14.6311673   7.6581673  65.0216993  11.4591673   7.2161673
  64.2246993  11.6831673   7.4901673  65.2796993  10.8651673   7.8011673
  64.9416993  11.4041673   7.3431673  64.4726993  14.8061673  16.3391673
  64.6366993  15.0891673  17.1481673  64.7356993  15.4671673  15.8341673
  64.5356993  14.9461673  16.3841673  64.0126993   9.2631673  11.6621673
  63.8576993   9.8731673  12.2661673  64.5466993   8.7051673  12.0681673
  64.0686993   9.2711673  11.8111673  62.3966993   7.6631673   2.3201673
  62.4556993   8.3131673   2.8991673  62.2076993   6.9671673   2.8111673
  62.3776993   7.6561673   2.4781673  61.6196993   9.7101673   6.7511673
  60.7726993   9.5161673   6.8321673  61.9436993   9.5451673   7.5441673
  61.5416993   9.6571673   6.8801673  55.4676993   9.4031673   9.0671673
  56.1896993   9.8911673   9.0301673  55.1976993   9.3731673   8.2381673
  55.5346993   9.4711673   8.9391673  58.6976993   4.5741673   5.8021673
  59.5436993   4.3841673   5.9001673  58.3276993   3.7971673   5.6641673
  58.7676993   4.4311673   5.7961673  53.5186993   5.9121673   2.4571673
  54.0076993   5.6201673   3.1181673  53.6476993   5.3191673   1.8301673
  53.6096993   5.7811673   2.4621673  54.8626993  10.4551673  13.3451673
  54.4416993   9.9371673  12.7841673  54.5106993  11.2411673  13.2021673
  54.7486993  10.4951673  13.2411673  52.9786993   1.7771673   7.1891673
  53.0226993   2.1211673   6.3881673  53.7336993   2.0141673   7.5561673
  53.0966993   1.8631673   7.1251673  59.6016993  12.2661673   9.9631673
  59.3036993  12.8581673  10.5301673  59.6566993  12.7081673   9.2141673
  59.5656993  12.4191673   9.9361673  57.5806993  11.2161673  13.3611673
  56.7746993  10.9261673  13.5281673  57.4916993  12.0841673  13.3671673
  57.4486993  11.3011673  13.3861673  62.1176993   8.6891673   9.4541673
  62.5936993   9.0631673  10.0821673  61.2946993   8.8231673   9.7131673
  62.0666993   8.7641673   9.5851673  58.8276993   4.2921673  12.1951673
  58.9886993   3.5481673  12.6221673  58.7826993   4.0431673  11.3601673
  58.8446993   4.1451673  12.1351673  61.3816993  16.0821673   4.6821673
  61.9276993  16.7611673   4.7361673  61.0316993  16.1641673   3.8871673
  61.4106993  16.1951673   4.5721673  59.5646993  14.3101673   8.0711673
  58.9406993  14.8921673   7.8891673  59.8126993  14.0241673   7.2851673
  59.5086993  14.3541673   7.9281673  63.8736993  10.9441673  15.0601673
  64.6306993  11.2301673  14.7341673  63.3266993  10.9961673  14.3821673
  63.9046993  10.9941673  14.9111673  57.0886993   5.1531673   8.1361673
  57.5286993   5.0501673   7.3901673  57.6336993   4.8401673   8.7411673
  57.2336993   5.0921673   8.1151673  64.7926993   5.7921673  10.0261673
  65.0946993   6.2121673  10.7291673  64.8286993   4.9521673  10.2581673
  64.8426993   5.7301673  10.1641673  62.2176993  15.9591673  13.9511673
  62.6956993  15.3591673  13.5351673  61.8666993  15.5161673  14.6161673
  62.2366993  15.8051673  13.9881673  62.2766993  11.1781673  12.9711673
  61.4816993  11.1141673  13.3221673  62.3476993  12.0251673  12.7761673
  62.1696993  11.2931673  12.9941673  58.1066993  17.3851673   8.2881673
  58.1176993  17.4441673   9.1581673  57.6816993  16.6381673   8.1381673
  58.0456993  17.2831673   8.3941673  65.0216993  10.4331673   4.4871673
  65.0976993  10.7741673   5.2861673  65.1906993   9.5861673   4.6081673
  65.0576993  10.3581673   4.6231673  62.5436993   9.7071673   4.0521673
  62.2456993   9.3921673   4.8091673  63.2386993  10.1801673   4.2871673
  62.6026993   9.7301673   4.1991673  62.7656993  13.8251673  12.0791673
  63.4526993  13.7111673  12.6041673  62.8996993  14.6161673  11.7351673
  62.8866993  13.9251673  12.1061673  54.8706993  16.8831673  13.7301673
  54.2166993  16.3141673  13.8281673  54.4956993  17.6561673  13.8811673
  54.7186993  16.9131673  13.7671673  63.3886993   8.2891673  15.6531673
  63.7116993   8.9751673  15.2211673  62.6846993   8.6121673  16.0551673
  63.3316993   8.4381673  15.6481673  63.1736993  11.7531673   9.5121673
  62.4796993  12.1551673   9.8551673  63.8506993  12.1861673   9.8511673
  63.1706993  11.8761673   9.6131673  56.2416993   5.2911673  11.8591673
  56.6166993   5.9101673  11.3721673  56.9156993   4.8171673  12.1441673
  56.3966993   5.3131673  11.8291673  54.0166993   3.7391673  11.1341673
  54.0936993   3.5701673  10.2811673  54.7626993   4.1451673  11.3311673
  54.1376993   3.7741673  11.0371673  63.4956993  13.3441673   2.6811673
  63.2906993  14.1771673   2.5221673  62.7206993  12.9621673   2.8031673
  63.3506993  13.4111673   2.6761673  53.4136993   8.9651673  11.3581673
  53.7336993   9.1841673  10.5771673  53.3136993   8.1001673  11.3031673
  53.4456993   8.8701673  11.2351673  58.1766993   8.2571673  12.7431673
  57.7806993   9.0311673  12.8181673  57.7706993   7.8841673  12.0671673
  58.0586993   8.3161673  12.6541673  65.4406993  12.8301673  10.3551673
  65.6466993  13.1311673  11.1471673  65.3796993  13.5521673   9.8701673
  65.4616993  12.9811673  10.4001673  64.9746993  17.0441673  14.6011673
  64.2216993  17.0261673  14.1601673  65.1426993  17.8961673  14.6851673
  64.8886993  17.1671673  14.5481673  60.2116993   6.3111673  13.7711673
  59.8896993   5.7351673  13.2011673  59.8526993   7.0661673  13.5251673
  60.1116993   6.3371673  13.6511673  58.6466993  16.6671673  14.0191673
  58.6876993  16.7931673  14.8821673  59.2976993  16.1071673  13.8631673
  58.7486993  16.6031673  14.1241673  56.2396993  15.0501673  15.3791673
  56.8346993  15.4811673  15.8511673  55.8756993  15.6741673  14.8901673
  56.2736993  15.2061673  15.3761673  64.2306993   5.9811673   5.3111673
  64.7816993   5.3741673   5.6111673  63.8056993   6.2441673   6.0261673
  64.2496993   5.9301673   5.4601673  54.4786993   4.6311673   4.7971673
  54.1106993   4.9331673   5.5281673  55.0126993   4.0021673   5.0811673
  54.5026993   4.5831673   4.9471673  54.1666993  13.0391673  12.3081673
  53.5926993  13.4551673  12.8171673  54.8996993  13.5041673  12.4031673
  54.1906993  13.1691673  12.3971673  56.6396993  15.1211673   7.5601673
  56.5606993  14.3111673   7.2441673  56.1956993  15.6081673   6.9881673
  56.5626993  15.0731673   7.4291673  54.2116993  17.3651673  11.1411673
  54.7046993  17.3091673  11.8591673  54.3996993  16.6321673  10.7061673
  54.3126993  17.2481673  11.1831673  44.7848553  55.3154913  79.3131313
  44.5398553  55.8034913  78.6331313  45.6478553  55.2424913  79.2131313
  44.8758553  55.3764913  79.1981313  44.5938553  62.2314913  83.9841313
  44.0698553  62.8274913  84.3471313  44.9908553  61.8634913  84.6681313
  44.5748553  62.2654913  84.1391313  34.4628553  66.3714913  79.4401313
  34.0218553  66.4894913  80.1831313  34.1798553  65.5964913  79.1551313
  34.3558553  66.2744913  79.5081313  50.7378553  69.6724913  76.9551313
  51.4388553  69.1534913  76.9511313  50.1508553  69.2274913  76.4861313
  50.7548553  69.5294913  76.8851313  34.2058553  60.1634913  75.9471313
  33.4278553  60.3254913  75.5871313  34.2448553  59.2924913  75.9691313
  34.0968553  60.0584913  75.8971313  37.3448553  65.4264913  74.6191313
  36.9528553  65.0554913  73.9331313  37.2648553  64.8284913  75.2481313
  37.2748553  65.2834913  74.6101313  47.2648553  63.2984913  80.6601313
  47.3448553  63.3024913  79.7911313  46.6808553  62.6664913  80.8091313
  47.1898553  63.2054913  80.5541313  36.9718553  67.0674913  78.5191313
  37.5798553  66.8974913  79.1221313  36.2208553  66.9274913  78.9401313
  36.9508553  67.0214913  78.6701313  41.2538553  56.4024913  78.4681313
  41.1838553  57.0794913  77.9221313  41.9948553  56.0144913  78.2191313
  41.3528553  56.4454913  78.3501313  35.8628553  70.1584913  74.5961313
  36.3298553  70.2424913  73.8641313  36.3178553  69.5804913  75.0651313
  35.9988553  70.0854913  74.5571313  34.4028553  69.1064913  85.6951313
  34.5318553  68.8264913  86.5111313  33.7928553  68.5654913  85.3861313
  34.3318553  68.9854913  85.7701313  35.8488553  63.6274913  79.8971313
  35.3868553  63.2354913  79.2701313  36.5488553  63.1144913  79.9891313
  35.8838553  63.4944913  79.8181313  40.3568553  59.2374913  85.2441313
  41.0348553  59.2554913  84.6951313  40.3118553  58.4014913  85.4891313
  40.4498553  59.1164913  85.1991313  37.8498553  61.7274913  79.9201313
  38.6668553  61.5404913  80.1631313  37.3728553  61.1134913  80.3161313
  37.8998553  61.6094913  80.0151313  42.0538553  67.7084913  82.5301313
  42.4018553  66.9094913  82.5601313  42.7188553  68.2124913  82.2751313
  42.2038553  67.6644913  82.4971313  42.1108553  67.1574913  78.7411313
  42.4418553  66.5134913  79.2271313  42.3508553  66.9464913  77.9301313
  42.1948553  67.0314913  78.6931313  38.4468553  56.8214913  79.1861313
  38.1508553  57.3224913  78.5361313  39.3138553  56.8994913  79.1291313
  38.5308553  56.9074913  79.0821313  41.4258553  55.9634913  81.4091313
  41.4988553  56.8234913  81.5381313  41.3878553  55.8884913  80.5411313
  41.4308553  56.0794913  81.3001313  46.0988553  58.8894913  73.7081313
  45.6488553  59.5704913  74.0151313  46.2128553  58.3854913  74.4111313
  46.0498553  58.9154913  73.8571313  34.3048553  61.3884913  82.9101313
  34.0488553  62.2194913  82.8351313  33.6408553  61.0054913  83.3271313
  34.1688553  61.4544913  82.9611313  40.0548553  68.9424913  78.2901313
  39.4758553  68.6674913  78.8821313  40.6788553  68.3334913  78.3151313
  40.0618553  68.8124913  78.3811313  37.3338553  56.2054913  83.4011313
  36.8128553  55.5774913  83.0931313  37.9248553  55.7684913  83.8721313
  37.3448553  56.0474913  83.4251313  35.7598553  69.7684913  78.7411313
  36.4158553  69.1934913  78.7561313  36.1488553  70.5174913  78.5201313
  35.9148553  69.7934913  78.7111313  51.4928553  58.8624913  80.0031313
  51.1468553  59.5404913  80.4291313  50.8568553  58.2644913  80.0191313
  51.3478553  58.8744913  80.0681313  36.5778553  68.2554913  82.2411313
  37.0008553  67.8994913  81.5671313  36.9018553  67.8334913  82.9331313
  36.6878553  68.1404913  82.2441313  43.6158553  60.5044913  79.6241313
  43.9028553  60.2724913  78.8341313  44.3478553  60.5834913  80.0931313
  43.7658553  60.4814913  79.5771313  44.3378553  60.8434913  74.7451313
  44.6188553  61.6314913  74.9941313  43.5618553  61.0084913  74.3821313
  44.2648553  60.9844913  74.7281313  51.1678553  57.1854913  85.3721313
  51.9248553  57.2574913  84.9441313  51.2308553  56.4124913  85.7711313
  51.2888553  57.0824913  85.3671313  43.1968553  69.0144913  74.5611313
  43.0158553  69.5594913  75.2181313  43.9628553  69.3044913  74.2601313
  43.2828553  69.1384913  74.6141313  46.7038553  56.9104913  75.6151313
  47.2438553  56.2284913  75.6911313  46.7658553  57.3084913  76.3891313
  46.7928553  56.8684913  75.7411313  34.6578553  58.0784913  78.1841313
  34.5438553  57.2144913  78.2151313  34.1828553  58.3724913  78.8541313
  34.5708553  57.9944913  78.2871313  36.7998553  70.4884913  86.3991313
  36.1018553  69.9804913  86.5251313  37.0598553  70.2834913  85.5911313
  36.7348553  70.3834913  86.2981313  43.9618553  59.2864913  76.9291313
  43.4538553  58.6244913  76.6751313  44.0138553  59.7904913  76.2191313
  43.8948553  59.2634913  76.7871313  43.9618553  56.2274913  76.8201313
  43.5068553  55.8254913  76.1941313  44.7348553  56.3824913  76.4451313
  44.0088553  56.1914913  76.6721313  42.5598553  58.5944913  81.3421313
  42.6338553  59.1624913  80.6841313  42.6808553  59.0864913  82.0521313
  42.5878553  58.7514913  81.3501313  47.7848553  68.4294913  79.7541313
  48.4858553  67.9474913  79.9431313  47.1248553  67.8604913  79.7991313
  47.7908553  68.2744913  79.7881313  37.1678553  54.4174913  79.6901313
  37.7038553  55.1054913  79.6801313  37.1708553  54.1434913  78.8621313
  37.2468553  54.4784913  79.5661313  40.1238553  64.8504913  83.7151313
  40.2958553  64.6404913  84.5441313  39.4688553  64.3164913  83.4991313
  40.0528553  64.7404913  83.8061313  46.3518553  58.7644913  87.2301313
  46.2568553  59.0834913  88.0361313  45.7588553  58.1254913  87.1921313
  46.2498553  58.7164913  87.3441313  40.8738553  64.7884913  86.3051313
  40.9268553  65.6354913  86.5071313  40.5888553  64.4184913  87.0421313
  40.8398553  64.8584913  86.4431313  47.0508553  65.4834913  85.4351313
  46.5368553  65.0714913  86.0061313  46.9248553  66.3274913  85.6161313
  46.9568553  65.5474913  85.5461313  47.6078553  54.7084913  80.0661313
  47.6568553  54.3904913  80.8771313  47.9308553  54.0644913  79.5731313
  47.6628553  54.5664913  80.1131313  37.6158553  58.2274913  81.3441313
  37.8878553  57.7974913  80.6361313  37.4398553  57.5914913  81.9151313
  37.6298553  58.0704913  81.3241313  50.3038553  65.9224913  75.5621313
  50.4228553  65.6354913  76.3771313  51.1108553  65.9434913  75.2321313
  50.4398553  65.8834913  75.6341313  37.4398553  65.6544913  80.8931313
  38.2908553  65.5744913  80.7201313  37.0828553  64.9724913  80.4811313
  37.5128553  65.5414913  80.8061313  35.7568553  59.3294913  84.4261313
  36.5998553  59.5494913  84.3831313  35.3678553  59.9024913  83.8951313
  35.8238553  59.4464913  84.3411313  48.1988553  62.4594913  75.1471313
  47.9788553  63.1904913  74.7251313  47.7508553  62.5104913  75.8941313
  48.0998553  62.5744913  75.1951313  39.8078553  65.6614913  79.1281313
  40.5208553  66.1564913  79.2181313  40.0298553  65.0944913  78.5021313
  39.9458553  65.6504913  79.0491313  52.3858553  57.3204913  74.6001313
  51.7238553  56.7524913  74.6231313  52.1928553  57.8324913  73.9201313
  52.2598553  57.3124913  74.5031313  33.9638553  67.3044913  82.4481313
  33.2968553  67.7924913  82.7241313  34.6438553  67.8494913  82.4771313
  33.9658553  67.4564913  82.4931313  52.7088553  61.6984913  87.1561313
  52.9238553  60.8984913  86.8801313  51.8588553  61.7584913  86.9671313
  52.6148553  61.5894913  87.0871313  34.0298553  63.9884913  77.5511313
  33.8448553  63.1494913  77.7031313  34.6888553  63.9524913  76.9811313
  34.0998553  63.8594913  77.4891313  50.3878553  56.8784913  76.8791313
  51.1338553  56.4714913  77.0781313  50.6508553  57.5934913  76.4541313
  50.5368553  56.9244913  76.8461313  44.3308553  69.3644913  81.4551313
  43.8078553  69.9984913  81.1621313  44.6408553  69.0004913  80.7261313
  44.2988553  69.4044913  81.3041313  34.2018553  68.1524913  77.1261313
  34.7538553  68.7214913  77.4901313  33.9698553  67.6374913  77.7911313
  34.2488553  68.1604913  77.2781313  38.4058553  67.1524913  84.2151313
  38.8728553  67.4414913  84.8931313  38.9778553  66.6744913  83.7611313
  38.5598553  67.1244913  84.2481313  46.8418553  59.1664913  81.9521313
  47.1858553  59.3184913  82.7391313  46.3888553  58.4284913  82.0651313
  46.8258553  59.0794913  82.0851313  34.0318553  66.6014913  74.7541313
  34.7878553  66.1694913  74.8121313  34.0468553  67.1334913  75.4451313
  34.1458553  66.6164913  74.8651313  34.9718553  64.8224913  82.7591313
  35.4028553  64.6934913  82.0121313  34.7668553  65.6704913  82.7331313
  35.0048553  64.9284913  82.6451313  41.3178553  58.3864913  76.4091313
  41.3158553  58.2694913  75.5441313  41.1368553  59.2344913  76.5011313
  41.2908553  58.4944913  76.2951313  39.0558553  68.3384913  81.0411313
  39.1818553  69.1814913  81.2281313  39.7238553  67.9394913  81.4371313
  39.1738553  68.4044913  81.1271313  37.6708553  61.2184913  76.0431313
  37.5428553  60.7704913  76.7811313  37.0888553  60.8764913  75.4911313
  37.5658553  61.1014913  76.0711313  37.8378553  63.0484913  82.6421313
  37.0568553  62.9894913  82.2591313  37.9098553  62.2964913  83.0791313
  37.7328553  62.9294913  82.6501313  38.2678553  62.7854913  86.1101313
  38.2928553  62.1104913  85.5591313  37.6218553  63.2814913  85.7981313
  38.1768553  62.7584913  85.9831313  48.1628553  60.4984913  84.5061313
  47.5008553  60.8264913  84.9691313  48.3498553  61.1324913  83.9371313
  48.0928553  60.6404913  84.4901313  44.8078553  56.4044913  87.9351313
  44.9568553  55.5794913  87.6921313  45.1868553  56.4594913  88.7191313
  44.8858553  56.2904913  88.0151313  46.3558553  58.4674913  78.0171313
  46.8458553  59.1844913  77.9401313  45.5658553  58.7284913  77.7541313
  46.3118553  58.6114913  77.9671313  42.9378553  59.9374913  83.7421313
  43.4178553  60.6364913  83.9501313  43.3108553  59.2904913  84.1931313
  43.0638553  59.9454913  83.8391313  45.1268553  63.1064913  76.0161313
  45.1188553  63.8284913  75.5261313  44.4878553  63.2414913  76.5931313
  45.0318553  63.2334913  76.0291313  50.0988553  66.9764913  79.9971313
  50.4548553  66.6264913  80.7121313  50.0908553  66.3154913  79.4271313
  50.1508553  66.8264913  80.0181313  46.1438553  70.0424913  83.8411313
  45.5408553  69.7464913  83.2841313  46.6888553  70.4944913  83.3321313
  46.1348553  70.0654913  83.6831313  46.1568553  66.8934913  83.2411313
  45.3598553  67.1174913  83.5151313  46.4148553  66.2994913  83.8261313
  46.0768553  66.8384913  83.3681313  39.7198553  55.4484913  75.6771313
  39.8168553  55.3414913  76.5381313  39.0118553  55.9544913  75.6121313
  39.6298553  55.5074913  75.7951313  49.4168553  64.8914913  88.0871313
  49.4718553  65.0164913  87.2251313  50.1698553  65.2114913  88.3891313
  49.5358553  64.9564913  88.0041313  36.8418553  63.7554913  76.9201313
  37.1658553  62.9764913  76.6981313  37.4878553  64.1234913  77.3751313
  36.9848553  63.6944913  76.9541313  45.1478553  64.6974913  87.6871313
  44.9928553  65.3074913  88.2911313  45.6818553  64.1394913  88.0931313
  45.2038553  64.7054913  87.8361313  33.8388553  55.4164913  77.8881313
  33.9678553  54.7084913  77.3961313  33.4718553  55.0984913  78.6131313
  33.8038553  55.2644913  77.9231313  43.5318553  63.0974913  78.3451313
  43.5908553  63.7474913  78.9241313  43.3428553  62.4014913  78.8361313
  43.5128553  63.0904913  78.5031313  48.7578553  67.4264913  84.2141313
  48.2788553  67.7244913  83.5481313  48.4018553  66.6504913  84.3921313
  48.6348553  67.3554913  84.1421313  38.0278553  57.6144913  74.8571313
  37.5168553  57.6674913  74.1511313  38.8118553  57.8544913  74.5611313
  38.0678553  57.6574913  74.7091313  42.7548553  65.1444913  82.7761313
  41.9078553  64.9504913  82.8571313  43.0788553  64.9794913  83.5691313
  42.6768553  65.0914913  82.9051313  36.6028553  64.8374913  85.0921313
  37.3248553  65.3254913  85.0551313  36.3328553  64.8074913  84.2631313
  36.6698553  64.9054913  84.9641313  39.8328553  60.0084913  81.8271313
  40.6788553  59.8184913  81.9251313  39.4628553  59.2314913  81.6891313
  39.9028553  59.8654913  81.8211313  34.6538553  61.3464913  78.4821313
  35.1428553  61.0544913  79.1431313  34.7828553  60.7534913  77.8551313
  34.7448553  61.2154913  78.4871313  49.6888553  64.3684913  85.3331313
  49.6818553  63.5924913  85.7311313  48.8478553  64.6024913  85.3261313
  49.5638553  64.2884913  85.3911313  39.1788553  62.7804913  73.9681313
  38.5688553  62.3754913  74.4421313  38.7928553  62.8984913  73.1951313
  39.0318553  62.7374913  73.9241313  50.9448553  64.4394913  82.7701313
  50.6588553  64.8404913  83.4901313  51.8048553  64.3774913  82.8971313
  51.0298553  64.4894913  82.8951313  40.6338553  61.2414913  76.6781313
  40.9058553  62.0674913  76.7451313  39.7708553  61.3164913  76.5821313
  40.5468553  61.3744913  76.6731313  34.1138553  57.2114913  83.2141313
  34.1578553  57.5554913  82.4131313  34.8688553  57.4484913  83.5811313
  34.2318553  57.2974913  83.1501313  52.0758553  70.0724913  83.2991313
  52.3658553  70.3294913  82.5181313  52.7708553  70.1684913  83.8181313
  52.2218553  70.1244913  83.2601313  48.6808553  68.6754913  75.2811313
  49.0148553  67.8694913  75.3161313  47.9258553  68.6034913  75.7111313
  48.6188553  68.5454913  75.3501313  49.1628553  60.5094913  80.9401313
  48.4178553  60.1864913  81.2581313  49.1648553  61.3354913  81.2201313
  49.0528553  60.5834913  81.0281313  51.6028553  66.4694913  88.6921313
  52.2308553  65.9204913  88.4361313  51.5418553  67.0344913  88.0301313
  51.6868553  66.4724913  88.5561313  46.0548553  66.5504913  74.6841313
  46.7388553  66.0364913  74.5151313  45.6378553  66.5964913  73.9191313
  46.0938553  66.4814913  74.5461313  40.7368553  67.7004913  85.9881313
  40.4388553  68.2924913  86.5551313  40.7918553  68.1424913  85.2391313
  40.7008553  67.8534913  85.9611313  48.0748553  56.8394913  88.4011313
  48.8188553  57.2914913  88.3381313  47.5088553  57.3094913  87.9321313
  48.1018553  56.9764913  88.3231313  43.2528553  64.1234913  85.4791313
  43.7288553  64.4974913  86.1071313  42.4298553  64.2574913  85.7381313
  43.2018553  64.1984913  85.6101313  39.9628553  59.7264913  88.2201313
  40.1238553  58.9824913  88.6471313  39.9178553  59.4774913  87.3851313
  39.9798553  59.5794913  88.1601313  49.3598553  54.8194913  86.0711313
  49.0798553  55.6444913  86.0271313  50.0758553  54.8724913  86.5671313
  49.4248553  54.9494913  86.1381313  41.7148553  55.5344913  88.1001313
  42.4198553  55.8544913  87.6981313  41.9558553  54.7274913  88.3271313
  41.8538553  55.4624913  88.0741313  40.6998553  69.7444913  84.0961313
  40.0758553  70.3264913  83.9141313  40.9478553  69.4584913  83.3101313
  40.6438553  69.7884913  83.9531313  50.7808553  61.0744913  74.9281313
  51.1588553  61.7514913  74.5281313  49.9388553  61.2984913  74.9591313
  50.7118553  61.2074913  74.8731313  42.2938553  64.5204913  74.0111313
  41.4888553  64.3434913  73.7261313  42.2608553  65.3714913  74.2031313
  42.1698553  64.6194913  73.9981313  38.2238553  60.5874913  84.1611313
  38.6638553  60.4844913  83.4151313  38.7688553  60.2744913  84.7661313
  38.3688553  60.5264913  84.1401313  45.9278553  61.2264913  86.0511313
  46.2298553  61.6464913  86.7541313  45.9638553  60.3864913  86.2831313
  45.9778553  61.1644913  86.1891313  48.4758553  60.6734913  78.3031313
  48.6828553  60.4724913  79.1271313  49.2318553  60.9414913  77.9611313
  48.6178553  60.6834913  78.3741313  41.7708553  55.5724913  84.2081313
  40.9448553  55.4234913  84.4451313  41.7308553  55.6074913  83.3371313
  41.6428553  55.5554913  84.1141313  49.4978553  56.7564913  79.7771313
  48.7838553  56.2854913  79.9481313  49.3358553  57.0974913  78.9911313
  49.3688553  56.7374913  79.6861313  49.9408553  64.7004913  78.1571313
  50.4168553  63.9714913  78.1091313  49.1198553  64.4144913  78.0811313
  49.8898553  64.5504913  78.1381313  37.3998553  58.7144913  77.4681313
  37.5258553  58.3854913  76.6701313  36.5878553  58.4654913  77.6671313
  37.2988553  58.6294913  77.3801313  46.1568553  65.8674913  80.5121313
  46.2328553  66.2084913  81.3111313  46.3258553  65.0204913  80.6331313
  46.1928553  65.7924913  80.6481313  43.6788553  65.1414913  80.0771313
  43.3808553  64.8264913  80.8341313  44.3738553  65.6144913  80.3121313
  43.7378553  65.1644913  80.2241313  43.9008553  69.2594913  88.1041313
  44.5878553  69.1454913  88.6291313  44.0348553  70.0504913  87.7601313
  44.0218553  69.3594913  88.1311313  46.5898553  62.5334913  88.4911313
  46.3348553  61.8144913  88.9131313  47.4108553  62.6494913  88.7611313
  46.6738553  62.4444913  88.5931313  44.3088553  67.1874913  85.5371313
  43.6148553  67.5894913  85.8801313  44.9858553  67.6204913  85.8761313
  44.3058553  67.3104913  85.6381313  37.3768553  60.7254913  87.8841313
  37.7518553  61.3444913  87.3971313  38.0508553  60.2514913  88.1691313
  37.5318553  60.7474913  87.8541313  35.1518553  59.1734913  87.1591313
  35.2288553  59.0044913  86.3061313  35.8978553  59.5794913  87.3561313
  35.2728553  59.2084913  87.0621313  50.7108553  61.8134913  77.5991313
  50.8138553  61.7554913  76.7351313  51.4518553  61.4814913  77.9171313
  50.8358553  61.7564913  77.5181313  44.6308553  68.7784913  78.7061313
  44.4258553  69.6114913  78.5471313  43.8558553  68.3964913  78.8281313
  44.4858553  68.8454913  78.7011313  49.8128553  61.9594913  86.9551313
  49.8108553  61.0964913  87.0791313  49.8798553  62.2834913  87.7621313
  49.8228553  61.8794913  87.0921313  34.5488553  64.3994913  87.3831313
  34.8688553  64.6184913  86.6021313  34.4488553  63.5344913  87.3281313
  34.5808553  64.3044913  87.2601313  36.0048553  60.3354913  74.0011313
  35.3328553  60.3494913  74.5571313  36.0998553  59.4874913  73.8171313
  35.9198553  60.2124913  74.0561313  44.6858553  56.9494913  81.5911313
  43.9858553  57.4674913  81.5351313  44.7238553  56.5694913  80.8071313
  44.5878553  56.9704913  81.4671313  39.9928553  69.0404913  75.1151313
  40.4338553  69.1204913  75.8631313  39.1878553  68.8244913  75.3731313
  39.9388553  69.0204913  75.2641313  48.2838553  57.4654913  84.3911313
  49.1388553  57.5644913  84.5361313  47.9148553  58.0184913  84.9561313
  48.3558553  57.5624913  84.4961313  39.3118553  63.6914913  88.7681313
  38.9158553  64.4654913  88.8431313  38.9058553  63.3184913  88.0921313
  39.1938553  63.7504913  88.6791313  48.5878553  62.7454913  82.8821313
  49.2538553  63.2864913  83.0421313  48.2428553  63.0564913  82.1431313
  48.6348553  62.8714913  82.7971313  37.3218553  68.1104913  75.7161313
  37.0778553  67.8034913  76.4961313  37.2888553  67.4074913  75.2001313
  37.2808553  67.9614913  75.7551313  40.1408553  66.3554913  74.4591313
  39.3228553  66.0874913  74.5991313  40.1128553  67.2074913  74.6441313
  40.0158553  66.4424913  74.5071313  39.7408553  56.6684913  86.2181313
  38.8768553  56.7524913  86.2981313  39.9608553  56.1544913  86.8871313
  39.6458553  56.6054913  86.3291313  51.7588553  55.3034913  87.5471313
  51.7068553  55.2594913  88.4171313  52.4458553  54.8004913  87.3571313
  51.8528553  55.2234913  87.6471313  43.8438553  57.4164913  84.5921313
  43.1068553  56.9624913  84.7051313  44.4148553  57.0144913  85.1151313
  43.8188553  57.2894913  84.6861313  46.5758553  68.2644913  86.3801313
  46.7818553  68.5654913  87.1721313  46.5148553  68.9864913  85.8951313
  46.5968553  68.4154913  86.4251313  42.1428553  54.9974913  74.4231313
  42.2208553  55.2444913  73.5901313  41.3998553  55.3744913  74.6811313
  42.0448553  55.0894913  74.3381313  51.3878553  66.9034913  85.8381313
  51.3558553  66.0414913  85.7031313  50.6948553  67.2054913  85.4041313
  51.2808553  66.8204913  85.7541313  49.4928553  70.1634913  84.6351313
  50.0198553  70.0804913  83.9441313  49.1018553  69.3854913  84.6891313
  49.5128553  70.0364913  84.5411313  36.9608553  56.7514913  86.8661313
  36.6178553  55.9844913  86.6321313  36.2658553  57.2754913  86.9301313
  36.8078553  56.7154913  86.8411313  46.0068553  55.6074913  83.8431313
  46.6768553  56.1514913  83.9701313  45.5038553  56.0314913  83.2701313
  46.0318553  55.7504913  83.7771313  45.3658553  61.4154913  81.3361313
  45.9168553  60.8084913  81.6361313  44.9408553  61.6784913  82.0511313
  45.3848553  61.3644913  81.4851313  35.6138553  60.0654913  80.8221313
  35.2458553  60.3674913  81.5531313  36.1478553  59.4364913  81.1061313
  35.6378553  60.0174913  80.9721313  35.3018553  68.4734913  88.3331313
  34.7278553  68.8894913  88.8421313  36.0348553  68.9384913  88.4281313
  35.3258553  68.6034913  88.4221313  47.3358553  63.2464913  77.8981313
  47.4038553  62.3964913  78.0791313  46.5128553  63.3324913  77.6201313
  47.2238553  63.1334913  77.8841313  41.2548553  64.1374913  76.8361313
  41.3548553  64.2764913  75.9811313  42.0728553  64.0774913  77.1321313
  41.3898553  64.1484913  76.7531313  46.4898553  68.4664913  76.6381313
  46.2388553  68.3384913  77.4641313  46.1728553  67.7714913  76.2171313
  46.4058553  68.3454913  76.6981313  51.1338553  60.1244913  84.7581313
  50.3008553  60.3744913  84.6861313  51.0778553  59.2844913  84.9871313
  51.0028553  60.0374913  84.7811313  43.3758553  66.6744913  76.0681313
  44.0928553  66.3274913  75.7121313  43.3418553  67.4744913  75.7201313
  43.4768553  66.7414913  75.9641313  44.7848553  55.3154913  60.3068903
  44.5398553  55.8034913  59.6268903  45.6478553  55.2424913  60.2068903
  44.8758553  55.3764913  60.1918903  44.5938553  62.2314913  64.9778903
  44.0698553  62.8274913  65.3408903  44.9908553  61.8634913  65.6618903
  44.5748553  62.2654913  65.1328903  34.4628553  66.3714913  60.4338903
  34.0218553  66.4894913  61.1768903  34.1798553  65.5964913  60.1488903
  34.3558553  66.2744913  60.5018903  50.7378553  69.6724913  57.9488903
  51.4388553  69.1534913  57.9448903  50.1508553  69.2274913  57.4798903
  50.7548553  69.5294913  57.8788903  34.2058553  60.1634913  56.9408903
  33.4278553  60.3254913  56.5808903  34.2448553  59.2924913  56.9628903
  34.0968553  60.0584913  56.8908903  37.3448553  65.4264913  55.6128903
  36.9528553  65.0554913  54.9268903  37.2648553  64.8284913  56.2418903
  37.2748553  65.2834913  55.6038903  47.2648553  63.2984913  61.6538903
  47.3448553  63.3024913  60.7848903  46.6808553  62.6664913  61.8028903
  47.1898553  63.2054913  61.5478903  36.9718553  67.0674913  59.5128903
  37.5798553  66.8974913  60.1158903  36.2208553  66.9274913  59.9338903
  36.9508553  67.0214913  59.6638903  41.2538553  56.4024913  59.4618903
  41.1838553  57.0794913  58.9158903  41.9948553  56.0144913  59.2128903
  41.3528553  56.4454913  59.3438903  35.8628553  70.1584913  55.5898903
  36.3298553  70.2424913  54.8578903  36.3178553  69.5804913  56.0588903
  35.9988553  70.0854913  55.5508903  34.4028553  69.1064913  66.6888903
  34.5318553  68.8264913  67.5048903  33.7928553  68.5654913  66.3798903
  34.3318553  68.9854913  66.7638903  40.9768553  66.6314913  71.7558903
  40.7408553  66.6284913  72.5958903  40.2288553  66.4834913  71.3318903
  40.8308553  66.6084913  71.8168903  35.8488553  63.6274913  60.8908903
  35.3868553  63.2354913  60.2638903  36.5488553  63.1144913  60.9828903
  35.8838553  63.4944913  60.8118903  40.3568553  59.2374913  66.2378903
  41.0348553  59.2554913  65.6888903  40.3118553  58.4014913  66.4828903
  40.4498553  59.1164913  66.1928903  37.8498553  61.7274913  60.9138903
  38.6668553  61.5404913  61.1568903  37.3728553  61.1134913  61.3098903
  37.8998553  61.6094913  61.0088903  42.0538553  67.7084913  63.5238903
  42.4018553  66.9094913  63.5538903  42.7188553  68.2124913  63.2688903
  42.2038553  67.6644913  63.4908903  42.1108553  67.1574913  59.7348903
  42.4418553  66.5134913  60.2208903  42.3508553  66.9464913  58.9238903
  42.1948553  67.0314913  59.6868903  44.0788553  61.2884913  71.0738903
  43.2308553  61.1894913  70.8958903  44.1078553  62.0334913  71.5278903
  43.9578553  61.3844913  71.1148903  38.4468553  56.8214913  60.1798903
  38.1508553  57.3224913  59.5298903  39.3138553  56.8994913  60.1228903
  38.5308553  56.9074913  60.0758903  48.6368553  54.2484913  70.1878903
  48.4788553  55.0174913  69.8058903  47.8648553  54.0284913  70.5318903
  48.4988553  54.3294913  70.1828903  41.4258553  55.9634913  62.4028903
  41.4988553  56.8234913  62.5318903  41.3878553  55.8884913  61.5348903
  41.4308553  56.0794913  62.2938903  46.0988553  58.8894913  54.7018903
  45.6488553  59.5704913  55.0088903  46.2128553  58.3854913  55.4048903
  46.0498553  58.9154913  54.8508903  34.3048553  61.3884913  63.9038903
  34.0488553  62.2194913  63.8288903  33.6408553  61.0054913  64.3208903
  34.1688553  61.4544913  63.9548903  40.0548553  68.9424913  59.2838903
  39.4758553  68.6674913  59.8758903  40.6788553  68.3334913  59.3088903
  40.0618553  68.8124913  59.3748903  37.3338553  56.2054913  64.3948903
  36.8128553  55.5774913  64.0868903  37.9248553  55.7684913  64.8658903
  37.3448553  56.0474913  64.4188903  40.6398553  58.3384913  73.6928903
  40.7568553  57.8844913  72.9568903  40.9278553  59.1364913  73.4898903
  40.6998553  58.3894913  73.5538903  35.7598553  69.7684913  59.7348903
  36.4158553  69.1934913  59.7498903  36.1488553  70.5174913  59.5138903
  35.9148553  69.7934913  59.7048903  51.4928553  58.8624913  60.9968903
  51.1468553  59.5404913  61.4228903  50.8568553  58.2644913  61.0128903
  51.3478553  58.8744913  61.0618903  36.3728553  57.9354913  72.6768903
  35.5948553  57.5454913  72.6048903  36.8638553  57.5234913  72.0858903
  36.3298553  57.8164913  72.5788903  36.5778553  68.2554913  63.2348903
  37.0008553  67.8994913  62.5608903  36.9018553  67.8334913  63.9268903
  36.6878553  68.1404913  63.2378903  43.0218553  55.5784913  71.8448903
  43.1998553  54.7694913  71.5698903  42.8788553  56.0194913  71.1058903
  43.0268553  55.5244913  71.6948903  43.6158553  60.5044913  60.6178903
  43.9028553  60.2724913  59.8278903  44.3478553  60.5834913  61.0868903
  43.7658553  60.4814913  60.5708903  44.3378553  60.8434913  55.7388903
  44.6188553  61.6314913  55.9878903  43.5618553  61.0084913  55.3758903
  44.2648553  60.9844913  55.7218903  51.1678553  57.1854913  66.3658903
  51.9248553  57.2574913  65.9378903  51.2308553  56.4124913  66.7648903
  51.2888553  57.0824913  66.3608903  33.7208553  58.4834913  70.2628903
  33.7168553  59.0704913  70.9088903  34.3148553  58.7954913  69.7058903
  33.8078553  58.6164913  70.2758903  46.0588553  68.8174913  70.8048903
  46.0248553  69.1994913  71.5888903  46.9128553  68.7754913  70.6338903
  46.1798553  68.8674913  70.8958903  43.1968553  69.0144913  55.5548903
  43.0158553  69.5594913  56.2118903  43.9628553  69.3044913  55.2538903
  43.2828553  69.1384913  55.6078903  46.7038553  56.9104913  56.6088903
  47.2438553  56.2284913  56.6848903  46.7658553  57.3084913  57.3828903
  46.7928553  56.8684913  56.7348903  34.6578553  58.0784913  59.1778903
  34.5438553  57.2144913  59.2088903  34.1828553  58.3724913  59.8478903
  34.5708553  57.9944913  59.2808903  36.7998553  70.4884913  67.3928903
  36.1018553  69.9804913  67.5188903  37.0598553  70.2834913  66.5848903
  36.7348553  70.3834913  67.2918903  43.9618553  59.2864913  57.9228903
  43.4538553  58.6244913  57.6688903  44.0138553  59.7904913  57.2128903
  43.8948553  59.2634913  57.7808903  43.9618553  56.2274913  57.8138903
  43.5068553  55.8254913  57.1878903  44.7348553  56.3824913  57.4388903
  44.0088553  56.1914913  57.6658903  42.5598553  58.5944913  62.3358903
  42.6338553  59.1624913  61.6778903  42.6808553  59.0864913  63.0458903
  42.5878553  58.7514913  62.3438903  47.7848553  68.4294913  60.7478903
  48.4858553  67.9474913  60.9368903  47.1248553  67.8604913  60.7928903
  47.7908553  68.2744913  60.7818903  38.1608553  69.3394913  69.9598903
  39.0018553  69.4024913  69.7378903  38.1238553  69.7364913  70.7358903
  38.2798553  69.4074913  70.0418903  37.1678553  54.4174913  60.6838903
  37.7038553  55.1054913  60.6738903  37.1708553  54.1434913  59.8558903
  37.2468553  54.4784913  60.5598903  40.1238553  64.8504913  64.7088903
  40.2958553  64.6404913  65.5378903  39.4688553  64.3164913  64.4928903
  40.0528553  64.7404913  64.7998903  46.3518553  58.7644913  68.2238903
  46.2568553  59.0834913  69.0298903  45.7588553  58.1254913  68.1858903
  46.2498553  58.7164913  68.3378903  40.8738553  64.7884913  67.2988903
  40.9268553  65.6354913  67.5008903  40.5888553  64.4184913  68.0358903
  40.8398553  64.8584913  67.4368903  47.0508553  65.4834913  66.4288903
  46.5368553  65.0714913  66.9998903  46.9248553  66.3274913  66.6098903
  46.9568553  65.5474913  66.5398903  47.6078553  54.7084913  61.0598903
  47.6568553  54.3904913  61.8708903  47.9308553  54.0644913  60.5668903
  47.6628553  54.5664913  61.1068903  33.6948553  69.1594913  73.5098903
  34.4508553  69.5084913  73.7678903  33.8718553  68.3064913  73.4528903
  33.8328553  69.0844913  73.5398903  50.0718553  58.9444913  69.3678903
  50.8438553  58.7194913  69.7048903  49.5968553  59.1614913  70.0678903
  50.1158553  58.9434913  69.5208903  37.6158553  58.2274913  62.3378903
  37.8878553  57.7974913  61.6298903  37.4398553  57.5914913  62.9088903
  37.6298553  58.0704913  62.3178903  50.3038553  65.9224913  56.5558903
  50.4228553  65.6354913  57.3708903  51.1108553  65.9434913  56.2258903
  50.4398553  65.8834913  56.6278903  37.4398553  65.6544913  61.8868903
  38.2908553  65.5744913  61.7138903  37.0828553  64.9724913  61.4748903
  37.5128553  65.5414913  61.7998903  35.7568553  59.3294913  65.4198903
  36.5998553  59.5494913  65.3768903  35.3678553  59.9024913  64.8888903
  35.8238553  59.4464913  65.3348903  48.1988553  62.4594913  56.1408903
  47.9788553  63.1904913  55.7188903  47.7508553  62.5104913  56.8878903
  48.0998553  62.5744913  56.1888903  39.8078553  65.6614913  60.1218903
  40.5208553  66.1564913  60.2118903  40.0298553  65.0944913  59.4958903
  39.9458553  65.6504913  60.0428903  52.3858553  57.3204913  55.5938903
  51.7238553  56.7524913  55.6168903  52.1928553  57.8324913  54.9138903
  52.2598553  57.3124913  55.4968903  33.9638553  67.3044913  63.4418903
  33.2968553  67.7924913  63.7178903  34.6438553  67.8494913  63.4708903
  33.9658553  67.4564913  63.4868903  41.6108553  61.0144913  73.5378903
  41.1268553  61.5914913  73.9798903  41.5828553  61.3094913  72.7168903
  41.5348553  61.1434913  73.4818903  52.7088553  61.6984913  68.1498903
  52.9238553  60.8984913  67.8738903  51.8588553  61.7584913  67.9608903
  52.6148553  61.5894913  68.0808903  34.0298553  63.9884913  58.5448903
  33.8448553  63.1494913  58.6968903  34.6888553  63.9524913  57.9748903
  34.0998553  63.8594913  58.4828903  50.3878553  56.8784913  57.8728903
  51.1338553  56.4714913  58.0718903  50.6508553  57.5934913  57.4478903
  50.5368553  56.9244913  57.8398903  44.3308553  69.3644913  62.4488903
  43.8078553  69.9984913  62.1558903  44.6408553  69.0004913  61.7198903
  44.2988553  69.4044913  62.2978903  34.2018553  68.1524913  58.1198903
  34.7538553  68.7214913  58.4838903  33.9698553  67.6374913  58.7848903
  34.2488553  68.1604913  58.2718903  38.4058553  67.1524913  65.2088903
  38.8728553  67.4414913  65.8868903  38.9778553  66.6744913  64.7548903
  38.5598553  67.1244913  65.2418903  46.8418553  59.1664913  62.9458903
  47.1858553  59.3184913  63.7328903  46.3888553  58.4284913  63.0588903
  46.8258553  59.0794913  63.0788903  34.0318553  66.6014913  55.7478903
  34.7878553  66.1694913  55.8058903  34.0468553  67.1334913  56.4388903
  34.1458553  66.6164913  55.8588903  34.9718553  64.8224913  63.7528903
  35.4028553  64.6934913  63.0058903  34.7668553  65.6704913  63.7268903
  35.0048553  64.9284913  63.6388903  41.3178553  58.3864913  57.4028903
  41.3158553  58.2694913  56.5378903  41.1368553  59.2344913  57.4948903
  41.2908553  58.4944913  57.2888903  39.0558553  68.3384913  62.0348903
  39.1818553  69.1814913  62.2218903  39.7238553  67.9394913  62.4308903
  39.1738553  68.4044913  62.1208903  37.1858553  61.8214913  71.8968903
  36.6498553  61.3154913  72.3648903  37.2058553  61.4314913  71.1168903
  37.1088553  61.6884913  71.8508903  37.6708553  61.2184913  57.0368903
  37.5428553  60.7704913  57.7748903  37.0888553  60.8764913  56.4848903
  37.5658553  61.1014913  57.0648903  37.8378553  63.0484913  63.6358903
  37.0568553  62.9894913  63.2528903  37.9098553  62.2964913  64.0728903
  37.7328553  62.9294913  63.6438903  38.2678553  62.7854913  67.1038903
  38.2928553  62.1104913  66.5528903  37.6218553  63.2814913  66.7918903
  38.1768553  62.7584913  66.9768903  48.1628553  60.4984913  65.4998903
  47.5008553  60.8264913  65.9628903  48.3498553  61.1324913  64.9308903
  48.0928553  60.6404913  65.4838903  44.8078553  56.4044913  68.9288903
  44.9568553  55.5794913  68.6858903  45.1868553  56.4594913  69.7128903
  44.8858553  56.2904913  69.0088903  46.3558553  58.4674913  59.0108903
  46.8458553  59.1844913  58.9338903  45.5658553  58.7284913  58.7478903
  46.3118553  58.6114913  58.9608903  36.0668553  64.1404913  72.6628903
  36.0298553  64.6414913  71.9488903  36.3978553  63.3884913  72.3678903
  36.1098553  64.1024913  72.5138903  47.6698553  66.3454913  70.9208903
  48.1538553  67.0634913  71.0188903  48.0638553  65.9184913  70.2698903
  47.7998553  66.3884913  70.8388903  41.9658553  69.1904913  72.0978903
  42.3198553  69.0124913  72.8748903  41.5298553  68.4614913  71.8988903
  41.9538553  69.0564913  72.1838903  42.9378553  59.9374913  64.7358903
  43.4178553  60.6364913  64.9438903  43.3108553  59.2904913  65.1868903
  43.0638553  59.9454913  64.8328903  45.1268553  63.1064913  57.0098903
  45.1188553  63.8284913  56.5198903  44.4878553  63.2414913  57.5868903
  45.0318553  63.2334913  57.0228903  50.0988553  66.9764913  60.9908903
  50.4548553  66.6264913  61.7058903  50.0908553  66.3154913  60.4208903
  50.1508553  66.8264913  61.0118903  46.1438553  70.0424913  64.8348903
  45.5408553  69.7464913  64.2778903  46.6888553  70.4944913  64.3258903
  46.1348553  70.0654913  64.6768903  46.1568553  66.8934913  64.2348903
  45.3598553  67.1174913  64.5088903  46.4148553  66.2994913  64.8198903
  46.0768553  66.8384913  64.3618903  39.7198553  55.4484913  56.6708903
  39.8168553  55.3414913  57.5318903  39.0118553  55.9544913  56.6058903
  39.6298553  55.5074913  56.7888903  49.4168553  64.8914913  69.0808903
  49.4718553  65.0164913  68.2188903  50.1698553  65.2114913  69.3828903
  49.5358553  64.9564913  68.9978903  50.4488553  55.1894913  72.0678903
  49.8118553  54.7894913  71.6258903  50.4748553  54.7584913  72.8258903
  50.3588553  55.0674913  72.1138903  36.8418553  63.7554913  57.9138903
  37.1658553  62.9764913  57.6918903  37.4878553  64.1234913  58.3688903
  36.9848553  63.6944913  57.9478903  45.1478553  64.6974913  68.6808903
  44.9928553  65.3074913  69.2848903  45.6818553  64.1394913  69.0868903
  45.2038553  64.7054913  68.8298903  33.8388553  55.4164913  58.8818903
  33.9678553  54.7084913  58.3898903  33.4718553  55.0984913  59.6068903
  33.8038553  55.2644913  58.9168903  43.5318553  63.0974913  59.3388903
  43.5908553  63.7474913  59.9178903  43.3428553  62.4014913  59.8298903
  43.5128553  63.0904913  59.4968903  48.7578553  67.4264913  65.2078903
  48.2788553  67.7244913  64.5418903  48.4018553  66.6504913  65.3858903
  48.6348553  67.3554913  65.1358903  38.0278553  57.6144913  55.8508903
  37.5168553  57.6674913  55.1448903  38.8118553  57.8544913  55.5548903
  38.0678553  57.6574913  55.7028903  42.7548553  65.1444913  63.7698903
  41.9078553  64.9504913  63.8508903  43.0788553  64.9794913  64.5628903
  42.6768553  65.0914913  63.8988903  36.6028553  64.8374913  66.0858903
  37.3248553  65.3254913  66.0488903  36.3328553  64.8074913  65.2568903
  36.6698553  64.9054913  65.9578903  39.8328553  60.0084913  62.8208903
  40.6788553  59.8184913  62.9188903  39.4628553  59.2314913  62.6828903
  39.9028553  59.8654913  62.8148903  34.6538553  61.3464913  59.4758903
  35.1428553  61.0544913  60.1368903  34.7828553  60.7534913  58.8488903
  34.7448553  61.2154913  59.4808903  49.6888553  64.3684913  66.3268903
  49.6818553  63.5924913  66.7248903  48.8478553  64.6024913  66.3198903
  49.5638553  64.2884913  66.3848903  39.1788553  62.7804913  54.9618903
  38.5688553  62.3754913  55.4358903  38.7928553  62.8984913  54.1888903
  39.0318553  62.7374913  54.9178903  35.9978553  65.8894913  70.3638903
  35.5768553  65.3714913  69.8028903  35.6458553  66.6754913  70.2208903
  35.8838553  65.9294913  70.2598903  50.9448553  64.4394913  63.7638903
  50.6588553  64.8404913  64.4838903  51.8048553  64.3774913  63.8908903
  51.0298553  64.4894913  63.8888903  40.6338553  61.2414913  57.6718903
  40.9058553  62.0674913  57.7388903  39.7708553  61.3164913  57.5758903
  40.5468553  61.3744913  57.6668903  48.6068553  58.3634913  72.3038903
  48.0818553  58.8224913  72.8278903  48.2458553  57.5684913  72.2978903
  48.4758553  58.3134913  72.3798903  34.1138553  57.2114913  64.2078903
  34.1578553  57.5554913  63.4068903  34.8688553  57.4484913  64.5748903
  34.2318553  57.2974913  64.1438903  52.0758553  70.0724913  64.2928903
  52.3658553  70.3294913  63.5118903  52.7708553  70.1684913  64.8118903
  52.2218553  70.1244913  64.2538903  47.0988553  61.9324913  72.3798903
  47.1718553  62.0364913  73.2428903  46.4648553  62.4904913  72.1588903
  47.0158553  62.0304913  72.4748903  49.3668553  62.2514913  70.7448903
  49.6858553  63.0374913  70.9478903  48.9968553  61.9814913  71.4878903
  49.3598553  62.3274913  70.8848903  48.6808553  68.6754913  56.2748903
  49.0148553  67.8694913  56.3098903  47.9258553  68.6034913  56.7048903
  48.6188553  68.5454913  56.3438903  49.1628553  60.5094913  61.9338903
  48.4178553  60.1864913  62.2518903  49.1648553  61.3354913  62.2138903
  49.0528553  60.5834913  62.0218903  52.0648553  62.7934913  73.4798903
  52.0128553  62.4524913  72.6788903  52.8018553  63.2604913  73.4578903
  52.1658553  62.8124913  73.3578903  51.6028553  66.4694913  69.6858903
  52.2308553  65.9204913  69.4298903  51.5418553  67.0344913  69.0238903
  51.6868553  66.4724913  69.5498903  46.0548553  66.5504913  55.6778903
  46.7388553  66.0364913  55.5088903  45.6378553  66.5964913  54.9128903
  46.0938553  66.4814913  55.5398903  40.7368553  67.7004913  66.9818903
  40.4388553  68.2924913  67.5488903  40.7918553  68.1424913  66.2328903
  40.7008553  67.8534913  66.9548903  38.7158553  66.6504913  70.3798903
  37.9098553  66.3604913  70.5468903  38.6268553  67.5184913  70.3858903
  38.5838553  66.7354913  70.4048903  48.0748553  56.8394913  69.3948903
  48.8188553  57.2914913  69.3318903  47.5088553  57.3094913  68.9258903
  48.1018553  56.9764913  69.3168903  43.2528553  64.1234913  66.4728903
  43.7288553  64.4974913  67.1008903  42.4298553  64.2574913  66.7318903
  43.2018553  64.1984913  66.6038903  39.9628553  59.7264913  69.2138903
  40.1238553  58.9824913  69.6408903  39.9178553  59.4774913  68.3788903
  39.9798553  59.5794913  69.1538903  49.3598553  54.8194913  67.0648903
  49.0798553  55.6444913  67.0208903  50.0758553  54.8724913  67.5608903
  49.4248553  54.9494913  67.1318903  41.7148553  55.5344913  69.0938903
  42.4198553  55.8544913  68.6918903  41.9558553  54.7274913  69.3208903
  41.8538553  55.4624913  69.0678903  40.6998553  69.7444913  65.0898903
  40.0758553  70.3264913  64.9078903  40.9478553  69.4584913  64.3038903
  40.6438553  69.7884913  64.9468903  45.0088553  66.3784913  72.0788903
  45.7658553  66.6644913  71.7528903  44.4618553  66.4304913  71.4008903
  45.0398553  66.4284913  71.9298903  48.9178553  68.9284913  70.5828903
  49.2638553  69.1984913  71.3368903  49.2118553  69.5104913  70.0028903
  49.0128553  69.0544913  70.6088903  50.7808553  61.0744913  55.9218903
  51.1588553  61.7514913  55.5218903  49.9388553  61.2984913  55.9528903
  50.7118553  61.2074913  55.8668903  42.2938553  64.5204913  55.0048903
  41.4888553  64.3434913  54.7198903  42.2608553  65.3714913  55.1968903
  42.1698553  64.6194913  54.9918903  38.2238553  60.5874913  65.1548903
  38.6638553  60.4844913  64.4088903  38.7688553  60.2744913  65.7598903
  38.3688553  60.5264913  65.1338903  46.2398553  59.6894913  70.7468903
  45.5918553  60.1594913  71.0948903  46.8048553  59.6004913  71.4058903
  46.2278553  59.7454913  70.8958903  45.9278553  61.2264913  67.0448903
  46.2298553  61.6464913  67.7478903  45.9638553  60.3864913  67.2768903
  45.9778553  61.1644913  67.1828903  48.4758553  60.6734913  59.2968903
  48.6828553  60.4724913  60.1208903  49.2318553  60.9414913  58.9548903
  48.6178553  60.6834913  59.3678903  41.7708553  55.5724913  65.2018903
  40.9448553  55.4234913  65.4388903  41.7308553  55.6074913  64.3308903
  41.6428553  55.5554913  65.1078903  49.4978553  56.7564913  60.7708903
  48.7838553  56.2854913  60.9418903  49.3358553  57.0974913  59.9848903
  49.3688553  56.7374913  60.6798903  49.9408553  64.7004913  59.1508903
  50.4168553  63.9714913  59.1028903  49.1198553  64.4144913  59.0748903
  49.8898553  64.5504913  59.1318903  43.4118553  66.6124913  69.9898903
  42.6168553  66.5484913  70.3408903  43.4828553  67.4594913  69.7948903
  43.3048553  66.7274913  70.0128903  34.3358553  55.9704913  71.2368903
  34.1958553  56.7654913  70.9058903  33.5498553  55.7274913  71.5258903
  34.1988553  56.0524913  71.2308903  37.3998553  58.7144913  58.4618903
  37.5258553  58.3854913  57.6638903  36.5878553  58.4654913  58.6608903
  37.2988553  58.6294913  58.3738903  46.1568553  65.8674913  61.5058903
  46.2328553  66.2084913  62.3048903  46.3258553  65.0204913  61.6268903
  46.1928553  65.7924913  61.6418903  43.6788553  65.1414913  61.0708903
  43.3808553  64.8264913  61.8278903  44.3738553  65.6144913  61.3058903
  43.7378553  65.1644913  61.2178903  43.9008553  69.2594913  69.0978903
  44.5878553  69.1454913  69.6228903  44.0348553  70.0504913  68.7538903
  44.0218553  69.3594913  69.1248903  52.0768553  61.8684913  70.9088903
  51.2218553  61.7464913  71.0348903  52.2298553  61.4734913  70.1458903
  51.9728553  61.7914913  70.8148903  46.5898553  62.5334913  69.4848903
  46.3348553  61.8144913  69.9068903  47.4108553  62.6494913  69.7548903
  46.6738553  62.4444913  69.5868903  44.5238553  63.7234913  72.6718903
  44.8468553  64.4094913  72.2398903  43.8198553  64.0464913  73.0738903
  44.4668553  63.8724913  72.6668903  44.3088553  67.1874913  66.5308903
  43.6148553  67.5894913  66.8738903  44.9858553  67.6204913  66.8698903
  44.3058553  67.3104913  66.6318903  49.6858553  69.7804913  73.1108903
  50.4618553  69.3904913  73.1938903  49.2168553  69.4444913  73.7658903
  49.7308553  69.6734913  73.2198903  37.3768553  60.7254913  68.8778903
  37.7518553  61.3444913  68.3908903  38.0508553  60.2514913  69.1628903
  37.5318553  60.7474913  68.8478903  35.1518553  59.1734913  68.1528903
  35.2288553  59.0044913  67.2998903  35.8978553  59.5794913  68.3498903
  35.2728553  59.2084913  68.0558903  50.7108553  61.8134913  58.5928903
  50.8138553  61.7554913  57.7288903  51.4518553  61.4814913  58.9108903
  50.8358553  61.7564913  58.5118903  37.7058553  56.5834913  70.5638903
  37.6248553  55.7394913  70.7698903  37.3918553  56.6274913  69.7508903
  37.6478553  56.4654913  70.4738903  44.6308553  68.7784913  59.6998903
  44.4258553  69.6114913  59.5408903  43.8558553  68.3964913  59.8218903
  44.4858553  68.8454913  59.6948903  49.8128553  61.9594913  67.9488903
  49.8108553  61.0964913  68.0728903  49.8798553  62.2834913  68.7558903
  49.8228553  61.8794913  68.0858903  34.5488553  64.3994913  68.3768903
  34.8688553  64.6184913  67.5958903  34.4488553  63.5344913  68.3218903
  34.5808553  64.3044913  68.2538903  36.0048553  60.3354913  54.9948903
  35.3328553  60.3494913  55.5508903  36.0998553  59.4874913  54.8108903
  35.9198553  60.2124913  55.0498903  45.6918553  56.7594913  71.7308903
  45.7838553  57.4714913  72.2248903  45.0548553  56.3144913  72.1278903
  45.6108553  56.7984913  71.8628903  44.6858553  56.9494913  62.5848903
  43.9858553  57.4674913  62.5288903  44.7238553  56.5694913  61.8008903
  44.5878553  56.9704913  62.4608903  39.9928553  69.0404913  56.1088903
  40.4338553  69.1204913  56.8568903  39.1878553  68.8244913  56.3668903
  39.9388553  69.0204913  56.2578903  48.2838553  57.4654913  65.3848903
  49.1388553  57.5644913  65.5298903  47.9148553  58.0184913  65.9498903
  48.3558553  57.5624913  65.4898903  39.3118553  63.6914913  69.7618903
  38.9158553  64.4654913  69.8368903  38.9058553  63.3184913  69.0858903
  39.1938553  63.7504913  69.6728903  48.5878553  62.7454913  63.8758903
  49.2538553  63.2864913  64.0358903  48.2428553  63.0564913  63.1368903
  48.6348553  62.8714913  63.7908903  37.3218553  68.1104913  56.7098903
  37.0778553  67.8034913  57.4898903  37.2888553  67.4074913  56.1938903
  37.2808553  67.9614913  56.7488903  40.1408553  66.3554913  55.4528903
  39.3228553  66.0874913  55.5928903  40.1128553  67.2074913  55.6378903
  40.0158553  66.4424913  55.5008903  39.7408553  56.6684913  67.2118903
  38.8768553  56.7524913  67.2918903  39.9608553  56.1544913  67.8808903
  39.6458553  56.6054913  67.3228903  51.7588553  55.3034913  68.5408903
  51.7068553  55.2594913  69.4108903  52.4458553  54.8004913  68.3508903
  51.8528553  55.2234913  68.6408903  43.8438553  57.4164913  65.5858903
  43.1068553  56.9624913  65.6988903  44.4148553  57.0144913  66.1088903
  43.8188553  57.2894913  65.6798903  46.5758553  68.2644913  67.3738903
  46.7818553  68.5654913  68.1658903  46.5148553  68.9864913  66.8888903
  46.5968553  68.4154913  67.4188903  41.3468553  61.7454913  70.7898903
  41.0248553  61.1694913  70.2198903  40.9878553  62.5004913  70.5438903
  41.2468553  61.7714913  70.6698903  42.1428553  54.9974913  55.4168903
  42.2208553  55.2444913  54.5838903  41.3998553  55.3744913  55.6748903
  42.0448553  55.0894913  55.3318903  51.3878553  66.9034913  66.8318903
  51.3558553  66.0414913  66.6968903  50.6948553  67.2054913  66.3978903
  51.2808553  66.8204913  66.7478903  49.4928553  70.1634913  65.6288903
  50.0198553  70.0804913  64.9378903  49.1018553  69.3854913  65.6828903
  49.5128553  70.0364913  65.5348903  36.9608553  56.7514913  67.8598903
  36.6178553  55.9844913  67.6258903  36.2658553  57.2754913  67.9238903
  36.8078553  56.7154913  67.8348903  46.0068553  55.6074913  64.8368903
  46.6768553  56.1514913  64.9638903  45.5038553  56.0314913  64.2638903
  46.0318553  55.7504913  64.7708903  45.3658553  61.4154913  62.3298903
  45.9168553  60.8084913  62.6298903  44.9408553  61.6784913  63.0448903
  45.3848553  61.3644913  62.4788903  35.6138553  60.0654913  61.8158903
  35.2458553  60.3674913  62.5468903  36.1478553  59.4364913  62.0998903
  35.6378553  60.0174913  61.9658903  35.3018553  68.4734913  69.3268903
  34.7278553  68.8894913  69.8358903  36.0348553  68.9384913  69.4218903
  35.3258553  68.6034913  69.4158903  47.3358553  63.2464913  58.8918903
  47.4038553  62.3964913  59.0728903  46.5128553  63.3324913  58.6138903
  47.2238553  63.1334913  58.8778903  41.2548553  64.1374913  57.8298903
  41.3548553  64.2764913  56.9748903  42.0728553  64.0774913  58.1258903
  41.3898553  64.1484913  57.7468903  50.6098553  64.6194913  72.0428903
  51.2438553  64.4494913  72.6168903  51.0268553  65.0224913  71.3908903
  50.7648553  64.6544913  72.0318903  46.4898553  68.4664913  57.6318903
  46.2388553  68.3384913  58.4578903  46.1728553  67.7714913  57.2108903
  46.4058553  68.3454913  57.6918903  51.2348553  59.1834913  72.7808903
  51.0388553  59.8274913  73.3358903  50.5128553  58.6934913  72.7728903
  51.0998553  59.2064913  72.8618903  51.1338553  60.1244913  65.7518903
  50.3008553  60.3744913  65.6798903  51.0778553  59.2844913  65.9808903
  51.0028553  60.0374913  65.7748903  40.3938553  57.1124913  70.9458903
  40.6278553  56.5364913  70.3328903  39.5518553  56.9314913  71.0868903
  40.3038553  57.0004913  70.8758903  48.0208553  64.7304913  73.3978903
  48.8918553  64.6944913  73.3618903  47.8018553  65.1504913  72.6658903
  48.1178553  64.7864913  73.2848903  43.3758553  66.6744913  57.0618903
  44.0928553  66.3274913  56.7058903  43.3418553  67.4744913  56.7138903
  43.4768553  66.7414913  56.9578903  44.7848553  55.3154913  41.3006493
  44.5398553  55.8034913  40.6206493  45.6478553  55.2424913  41.2006493
  44.8758553  55.3764913  41.1856493  44.5938553  62.2314913  45.9716493
  44.0698553  62.8274913  46.3346493  44.9908553  61.8634913  46.6556493
  44.5748553  62.2654913  46.1266493  34.4628553  66.3714913  41.4276493
  34.0218553  66.4894913  42.1706493  34.1798553  65.5964913  41.1426493
  34.3558553  66.2744913  41.4956493  50.7378553  69.6724913  38.9426493
  51.4388553  69.1534913  38.9386493  50.1508553  69.2274913  38.4736493
  50.7548553  69.5294913  38.8726493  34.2058553  60.1634913  37.9346493
  33.4278553  60.3254913  37.5746493  34.2448553  59.2924913  37.9566493
  34.0968553  60.0584913  37.8846493  37.3448553  65.4264913  36.6066493
  36.9528553  65.0554913  35.9206493  37.2648553  64.8284913  37.2356493
  37.2748553  65.2834913  36.5976493  47.2648553  63.2984913  42.6476493
  47.3448553  63.3024913  41.7786493  46.6808553  62.6664913  42.7966493
  47.1898553  63.2054913  42.5416493  36.9718553  67.0674913  40.5066493
  37.5798553  66.8974913  41.1096493  36.2208553  66.9274913  40.9276493
  36.9508553  67.0214913  40.6576493  41.2538553  56.4024913  40.4556493
  41.1838553  57.0794913  39.9096493  41.9948553  56.0144913  40.2066493
  41.3528553  56.4454913  40.3376493  35.8628553  70.1584913  36.5836493
  36.3298553  70.2424913  35.8516493  36.3178553  69.5804913  37.0526493
  35.9988553  70.0854913  36.5446493  34.4028553  69.1064913  47.6826493
  34.5318553  68.8264913  48.4986493  33.7928553  68.5654913  47.3736493
  34.3318553  68.9854913  47.7576493  40.9768553  66.6314913  52.7496493
  40.7408553  66.6284913  53.5896493  40.2288553  66.4834913  52.3256493
  40.8308553  66.6084913  52.8106493  35.8488553  63.6274913  41.8846493
  35.3868553  63.2354913  41.2576493  36.5488553  63.1144913  41.9766493
  35.8838553  63.4944913  41.8056493  40.3568553  59.2374913  47.2316493
  41.0348553  59.2554913  46.6826493  40.3118553  58.4014913  47.4766493
  40.4498553  59.1164913  47.1866493  37.8498553  61.7274913  41.9076493
  38.6668553  61.5404913  42.1506493  37.3728553  61.1134913  42.3036493
  37.8998553  61.6094913  42.0026493  42.0538553  67.7084913  44.5176493
  42.4018553  66.9094913  44.5476493  42.7188553  68.2124913  44.2626493
  42.2038553  67.6644913  44.4846493  42.1108553  67.1574913  40.7286493
  42.4418553  66.5134913  41.2146493  42.3508553  66.9464913  39.9176493
  42.1948553  67.0314913  40.6806493  44.0788553  61.2884913  52.0676493
  43.2308553  61.1894913  51.8896493  44.1078553  62.0334913  52.5216493
  43.9578553  61.3844913  52.1086493  38.4468553  56.8214913  41.1736493
  38.1508553  57.3224913  40.5236493  39.3138553  56.8994913  41.1166493
  38.5308553  56.9074913  41.0696493  48.6368553  54.2484913  51.1816493
  48.4788553  55.0174913  50.7996493  47.8648553  54.0284913  51.5256493
  48.4988553  54.3294913  51.1766493  41.4258553  55.9634913  43.3966493
  41.4988553  56.8234913  43.5256493  41.3878553  55.8884913  42.5286493
  41.4308553  56.0794913  43.2876493  46.0988553  58.8894913  35.6956493
  45.6488553  59.5704913  36.0026493  46.2128553  58.3854913  36.3986493
  46.0498553  58.9154913  35.8446493  34.3048553  61.3884913  44.8976493
  34.0488553  62.2194913  44.8226493  33.6408553  61.0054913  45.3146493
  34.1688553  61.4544913  44.9486493  40.0548553  68.9424913  40.2776493
  39.4758553  68.6674913  40.8696493  40.6788553  68.3334913  40.3026493
  40.0618553  68.8124913  40.3686493  37.3338553  56.2054913  45.3886493
  36.8128553  55.5774913  45.0806493  37.9248553  55.7684913  45.8596493
  37.3448553  56.0474913  45.4126493  40.6398553  58.3384913  54.6866493
  40.7568553  57.8844913  53.9506493  40.9278553  59.1364913  54.4836493
  40.6998553  58.3894913  54.5476493  35.7598553  69.7684913  40.7286493
  36.4158553  69.1934913  40.7436493  36.1488553  70.5174913  40.5076493
  35.9148553  69.7934913  40.6986493  51.4928553  58.8624913  41.9906493
  51.1468553  59.5404913  42.4166493  50.8568553  58.2644913  42.0066493
  51.3478553  58.8744913  42.0556493  36.3728553  57.9354913  53.6706493
  35.5948553  57.5454913  53.5986493  36.8638553  57.5234913  53.0796493
  36.3298553  57.8164913  53.5726493  36.5778553  68.2554913  44.2286493
  37.0008553  67.8994913  43.5546493  36.9018553  67.8334913  44.9206493
  36.6878553  68.1404913  44.2316493  43.0218553  55.5784913  52.8386493
  43.1998553  54.7694913  52.5636493  42.8788553  56.0194913  52.0996493
  43.0268553  55.5244913  52.6886493  43.6158553  60.5044913  41.6116493
  43.9028553  60.2724913  40.8216493  44.3478553  60.5834913  42.0806493
  43.7658553  60.4814913  41.5646493  44.3378553  60.8434913  36.7326493
  44.6188553  61.6314913  36.9816493  43.5618553  61.0084913  36.3696493
  44.2648553  60.9844913  36.7156493  51.1678553  57.1854913  47.3596493
  51.9248553  57.2574913  46.9316493  51.2308553  56.4124913  47.7586493
  51.2888553  57.0824913  47.3546493  33.7208553  58.4834913  51.2566493
  33.7168553  59.0704913  51.9026493  34.3148553  58.7954913  50.6996493
  33.8078553  58.6164913  51.2696493  46.0588553  68.8174913  51.7986493
  46.0248553  69.1994913  52.5826493  46.9128553  68.7754913  51.6276493
  46.1798553  68.8674913  51.8896493  43.1968553  69.0144913  36.5486493
  43.0158553  69.5594913  37.2056493  43.9628553  69.3044913  36.2476493
  43.2828553  69.1384913  36.6016493  46.7038553  56.9104913  37.6026493
  47.2438553  56.2284913  37.6786493  46.7658553  57.3084913  38.3766493
  46.7928553  56.8684913  37.7286493  34.6578553  58.0784913  40.1716493
  34.5438553  57.2144913  40.2026493  34.1828553  58.3724913  40.8416493
  34.5708553  57.9944913  40.2746493  36.7998553  70.4884913  48.3866493
  36.1018553  69.9804913  48.5126493  37.0598553  70.2834913  47.5786493
  36.7348553  70.3834913  48.2856493  43.9618553  59.2864913  38.9166493
  43.4538553  58.6244913  38.6626493  44.0138553  59.7904913  38.2066493
  43.8948553  59.2634913  38.7746493  43.9618553  56.2274913  38.8076493
  43.5068553  55.8254913  38.1816493  44.7348553  56.3824913  38.4326493
  44.0088553  56.1914913  38.6596493  42.5598553  58.5944913  43.3296493
  42.6338553  59.1624913  42.6716493  42.6808553  59.0864913  44.0396493
  42.5878553  58.7514913  43.3376493  47.7848553  68.4294913  41.7416493
  48.4858553  67.9474913  41.9306493  47.1248553  67.8604913  41.7866493
  47.7908553  68.2744913  41.7756493  38.1608553  69.3394913  50.9536493
  39.0018553  69.4024913  50.7316493  38.1238553  69.7364913  51.7296493
  38.2798553  69.4074913  51.0356493  37.1678553  54.4174913  41.6776493
  37.7038553  55.1054913  41.6676493  37.1708553  54.1434913  40.8496493
  37.2468553  54.4784913  41.5536493  40.1238553  64.8504913  45.7026493
  40.2958553  64.6404913  46.5316493  39.4688553  64.3164913  45.4866493
  40.0528553  64.7404913  45.7936493  46.3518553  58.7644913  49.2176493
  46.2568553  59.0834913  50.0236493  45.7588553  58.1254913  49.1796493
  46.2498553  58.7164913  49.3316493  40.8738553  64.7884913  48.2926493
  40.9268553  65.6354913  48.4946493  40.5888553  64.4184913  49.0296493
  40.8398553  64.8584913  48.4306493  47.0508553  65.4834913  47.4226493
  46.5368553  65.0714913  47.9936493  46.9248553  66.3274913  47.6036493
  46.9568553  65.5474913  47.5336493  47.6078553  54.7084913  42.0536493
  47.6568553  54.3904913  42.8646493  47.9308553  54.0644913  41.5606493
  47.6628553  54.5664913  42.1006493  33.6948553  69.1594913  54.5036493
  34.4508553  69.5084913  54.7616493  33.8718553  68.3064913  54.4466493
  33.8328553  69.0844913  54.5336493  50.0718553  58.9444913  50.3616493
  50.8438553  58.7194913  50.6986493  49.5968553  59.1614913  51.0616493
  50.1158553  58.9434913  50.5146493  37.6158553  58.2274913  43.3316493
  37.8878553  57.7974913  42.6236493  37.4398553  57.5914913  43.9026493
  37.6298553  58.0704913  43.3116493  50.3038553  65.9224913  37.5496493
  50.4228553  65.6354913  38.3646493  51.1108553  65.9434913  37.2196493
  50.4398553  65.8834913  37.6216493  37.4398553  65.6544913  42.8806493
  38.2908553  65.5744913  42.7076493  37.0828553  64.9724913  42.4686493
  37.5128553  65.5414913  42.7936493  35.7568553  59.3294913  46.4136493
  36.5998553  59.5494913  46.3706493  35.3678553  59.9024913  45.8826493
  35.8238553  59.4464913  46.3286493  48.1988553  62.4594913  37.1346493
  47.9788553  63.1904913  36.7126493  47.7508553  62.5104913  37.8816493
  48.0998553  62.5744913  37.1826493  39.8078553  65.6614913  41.1156493
  40.5208553  66.1564913  41.2056493  40.0298553  65.0944913  40.4896493
  39.9458553  65.6504913  41.0366493  52.3858553  57.3204913  36.5876493
  51.7238553  56.7524913  36.6106493  52.1928553  57.8324913  35.9076493
  52.2598553  57.3124913  36.4906493  33.9638553  67.3044913  44.4356493
  33.2968553  67.7924913  44.7116493  34.6438553  67.8494913  44.4646493
  33.9658553  67.4564913  44.4806493  41.6108553  61.0144913  54.5316493
  41.1268553  61.5914913  54.9736493  41.5828553  61.3094913  53.7106493
  41.5348553  61.1434913  54.4756493  52.7088553  61.6984913  49.1436493
  52.9238553  60.8984913  48.8676493  51.8588553  61.7584913  48.9546493
  52.6148553  61.5894913  49.0746493  34.0298553  63.9884913  39.5386493
  33.8448553  63.1494913  39.6906493  34.6888553  63.9524913  38.9686493
  34.0998553  63.8594913  39.4766493  50.3878553  56.8784913  38.8666493
  51.1338553  56.4714913  39.0656493  50.6508553  57.5934913  38.4416493
  50.5368553  56.9244913  38.8336493  44.3308553  69.3644913  43.4426493
  43.8078553  69.9984913  43.1496493  44.6408553  69.0004913  42.7136493
  44.2988553  69.4044913  43.2916493  34.2018553  68.1524913  39.1136493
  34.7538553  68.7214913  39.4776493  33.9698553  67.6374913  39.7786493
  34.2488553  68.1604913  39.2656493  38.4058553  67.1524913  46.2026493
  38.8728553  67.4414913  46.8806493  38.9778553  66.6744913  45.7486493
  38.5598553  67.1244913  46.2356493  46.8418553  59.1664913  43.9396493
  47.1858553  59.3184913  44.7266493  46.3888553  58.4284913  44.0526493
  46.8258553  59.0794913  44.0726493  34.0318553  66.6014913  36.7416493
  34.7878553  66.1694913  36.7996493  34.0468553  67.1334913  37.4326493
  34.1458553  66.6164913  36.8526493  34.9718553  64.8224913  44.7466493
  35.4028553  64.6934913  43.9996493  34.7668553  65.6704913  44.7206493
  35.0048553  64.9284913  44.6326493  41.3178553  58.3864913  38.3966493
  41.3158553  58.2694913  37.5316493  41.1368553  59.2344913  38.4886493
  41.2908553  58.4944913  38.2826493  39.0558553  68.3384913  43.0286493
  39.1818553  69.1814913  43.2156493  39.7238553  67.9394913  43.4246493
  39.1738553  68.4044913  43.1146493  37.1858553  61.8214913  52.8906493
  36.6498553  61.3154913  53.3586493  37.2058553  61.4314913  52.1106493
  37.1088553  61.6884913  52.8446493  37.6708553  61.2184913  38.0306493
  37.5428553  60.7704913  38.7686493  37.0888553  60.8764913  37.4786493
  37.5658553  61.1014913  38.0586493  37.8378553  63.0484913  44.6296493
  37.0568553  62.9894913  44.2466493  37.9098553  62.2964913  45.0666493
  37.7328553  62.9294913  44.6376493  38.2678553  62.7854913  48.0976493
  38.2928553  62.1104913  47.5466493  37.6218553  63.2814913  47.7856493
  38.1768553  62.7584913  47.9706493  48.1628553  60.4984913  46.4936493
  47.5008553  60.8264913  46.9566493  48.3498553  61.1324913  45.9246493
  48.0928553  60.6404913  46.4776493  44.8078553  56.4044913  49.9226493
  44.9568553  55.5794913  49.6796493  45.1868553  56.4594913  50.7066493
  44.8858553  56.2904913  50.0026493  46.3558553  58.4674913  40.0046493
  46.8458553  59.1844913  39.9276493  45.5658553  58.7284913  39.7416493
  46.3118553  58.6114913  39.9546493  36.0668553  64.1404913  53.6566493
  36.0298553  64.6414913  52.9426493  36.3978553  63.3884913  53.3616493
  36.1098553  64.1024913  53.5076493  47.6698553  66.3454913  51.9146493
  48.1538553  67.0634913  52.0126493  48.0638553  65.9184913  51.2636493
  47.7998553  66.3884913  51.8326493  41.9658553  69.1904913  53.0916493
  42.3198553  69.0124913  53.8686493  41.5298553  68.4614913  52.8926493
  41.9538553  69.0564913  53.1776493  42.9378553  59.9374913  45.7296493
  43.4178553  60.6364913  45.9376493  43.3108553  59.2904913  46.1806493
  43.0638553  59.9454913  45.8266493  45.1268553  63.1064913  38.0036493
  45.1188553  63.8284913  37.5136493  44.4878553  63.2414913  38.5806493
  45.0318553  63.2334913  38.0166493  50.0988553  66.9764913  41.9846493
  50.4548553  66.6264913  42.6996493  50.0908553  66.3154913  41.4146493
  50.1508553  66.8264913  42.0056493  46.1438553  70.0424913  45.8286493
  45.5408553  69.7464913  45.2716493  46.6888553  70.4944913  45.3196493
  46.1348553  70.0654913  45.6706493  46.1568553  66.8934913  45.2286493
  45.3598553  67.1174913  45.5026493  46.4148553  66.2994913  45.8136493
  46.0768553  66.8384913  45.3556493  39.7198553  55.4484913  37.6646493
  39.8168553  55.3414913  38.5256493  39.0118553  55.9544913  37.5996493
  39.6298553  55.5074913  37.7826493  49.4168553  64.8914913  50.0746493
  49.4718553  65.0164913  49.2126493  50.1698553  65.2114913  50.3766493
  49.5358553  64.9564913  49.9916493  50.4488553  55.1894913  53.0616493
  49.8118553  54.7894913  52.6196493  50.4748553  54.7584913  53.8196493
  50.3588553  55.0674913  53.1076493  36.8418553  63.7554913  38.9076493
  37.1658553  62.9764913  38.6856493  37.4878553  64.1234913  39.3626493
  36.9848553  63.6944913  38.9416493  45.1478553  64.6974913  49.6746493
  44.9928553  65.3074913  50.2786493  45.6818553  64.1394913  50.0806493
  45.2038553  64.7054913  49.8236493  33.8388553  55.4164913  39.8756493
  33.9678553  54.7084913  39.3836493  33.4718553  55.0984913  40.6006493
  33.8038553  55.2644913  39.9106493  43.5318553  63.0974913  40.3326493
  43.5908553  63.7474913  40.9116493  43.3428553  62.4014913  40.8236493
  43.5128553  63.0904913  40.4906493  48.7578553  67.4264913  46.2016493
  48.2788553  67.7244913  45.5356493  48.4018553  66.6504913  46.3796493
  48.6348553  67.3554913  46.1296493  38.0278553  57.6144913  36.8446493
  37.5168553  57.6674913  36.1386493  38.8118553  57.8544913  36.5486493
  38.0678553  57.6574913  36.6966493  42.7548553  65.1444913  44.7636493
  41.9078553  64.9504913  44.8446493  43.0788553  64.9794913  45.5566493
  42.6768553  65.0914913  44.8926493  36.6028553  64.8374913  47.0796493
  37.3248553  65.3254913  47.0426493  36.3328553  64.8074913  46.2506493
  36.6698553  64.9054913  46.9516493  39.8328553  60.0084913  43.8146493
  40.6788553  59.8184913  43.9126493  39.4628553  59.2314913  43.6766493
  39.9028553  59.8654913  43.8086493  34.6538553  61.3464913  40.4696493
  35.1428553  61.0544913  41.1306493  34.7828553  60.7534913  39.8426493
  34.7448553  61.2154913  40.4746493  49.6888553  64.3684913  47.3206493
  49.6818553  63.5924913  47.7186493  48.8478553  64.6024913  47.3136493
  49.5638553  64.2884913  47.3786493  39.1788553  62.7804913  35.9556493
  38.5688553  62.3754913  36.4296493  38.7928553  62.8984913  35.1826493
  39.0318553  62.7374913  35.9116493  35.9978553  65.8894913  51.3576493
  35.5768553  65.3714913  50.7966493  35.6458553  66.6754913  51.2146493
  35.8838553  65.9294913  51.2536493  50.9448553  64.4394913  44.7576493
  50.6588553  64.8404913  45.4776493  51.8048553  64.3774913  44.8846493
  51.0298553  64.4894913  44.8826493  40.6338553  61.2414913  38.6656493
  40.9058553  62.0674913  38.7326493  39.7708553  61.3164913  38.5696493
  40.5468553  61.3744913  38.6606493  48.6068553  58.3634913  53.2976493
  48.0818553  58.8224913  53.8216493  48.2458553  57.5684913  53.2916493
  48.4758553  58.3134913  53.3736493  34.1138553  57.2114913  45.2016493
  34.1578553  57.5554913  44.4006493  34.8688553  57.4484913  45.5686493
  34.2318553  57.2974913  45.1376493  52.0758553  70.0724913  45.2866493
  52.3658553  70.3294913  44.5056493  52.7708553  70.1684913  45.8056493
  52.2218553  70.1244913  45.2476493  47.0988553  61.9324913  53.3736493
  47.1718553  62.0364913  54.2366493  46.4648553  62.4904913  53.1526493
  47.0158553  62.0304913  53.4686493  49.3668553  62.2514913  51.7386493
  49.6858553  63.0374913  51.9416493  48.9968553  61.9814913  52.4816493
  49.3598553  62.3274913  51.8786493  48.6808553  68.6754913  37.2686493
  49.0148553  67.8694913  37.3036493  47.9258553  68.6034913  37.6986493
  48.6188553  68.5454913  37.3376493  49.1628553  60.5094913  42.9276493
  48.4178553  60.1864913  43.2456493  49.1648553  61.3354913  43.2076493
  49.0528553  60.5834913  43.0156493  52.0648553  62.7934913  54.4736493
  52.0128553  62.4524913  53.6726493  52.8018553  63.2604913  54.4516493
  52.1658553  62.8124913  54.3516493  51.6028553  66.4694913  50.6796493
  52.2308553  65.9204913  50.4236493  51.5418553  67.0344913  50.0176493
  51.6868553  66.4724913  50.5436493  46.0548553  66.5504913  36.6716493
  46.7388553  66.0364913  36.5026493  45.6378553  66.5964913  35.9066493
  46.0938553  66.4814913  36.5336493  40.7368553  67.7004913  47.9756493
  40.4388553  68.2924913  48.5426493  40.7918553  68.1424913  47.2266493
  40.7008553  67.8534913  47.9486493  38.7158553  66.6504913  51.3736493
  37.9098553  66.3604913  51.5406493  38.6268553  67.5184913  51.3796493
  38.5838553  66.7354913  51.3986493  48.0748553  56.8394913  50.3886493
  48.8188553  57.2914913  50.3256493  47.5088553  57.3094913  49.9196493
  48.1018553  56.9764913  50.3106493  43.2528553  64.1234913  47.4666493
  43.7288553  64.4974913  48.0946493  42.4298553  64.2574913  47.7256493
  43.2018553  64.1984913  47.5976493  39.9628553  59.7264913  50.2076493
  40.1238553  58.9824913  50.6346493  39.9178553  59.4774913  49.3726493
  39.9798553  59.5794913  50.1476493  49.3598553  54.8194913  48.0586493
  49.0798553  55.6444913  48.0146493  50.0758553  54.8724913  48.5546493
  49.4248553  54.9494913  48.1256493  41.7148553  55.5344913  50.0876493
  42.4198553  55.8544913  49.6856493  41.9558553  54.7274913  50.3146493
  41.8538553  55.4624913  50.0616493  40.6998553  69.7444913  46.0836493
  40.0758553  70.3264913  45.9016493  40.9478553  69.4584913  45.2976493
  40.6438553  69.7884913  45.9406493  45.0088553  66.3784913  53.0726493
  45.7658553  66.6644913  52.7466493  44.4618553  66.4304913  52.3946493
  45.0398553  66.4284913  52.9236493  48.9178553  68.9284913  51.5766493
  49.2638553  69.1984913  52.3306493  49.2118553  69.5104913  50.9966493
  49.0128553  69.0544913  51.6026493  50.7808553  61.0744913  36.9156493
  51.1588553  61.7514913  36.5156493  49.9388553  61.2984913  36.9466493
  50.7118553  61.2074913  36.8606493  42.2938553  64.5204913  35.9986493
  41.4888553  64.3434913  35.7136493  42.2608553  65.3714913  36.1906493
  42.1698553  64.6194913  35.9856493  38.2238553  60.5874913  46.1486493
  38.6638553  60.4844913  45.4026493  38.7688553  60.2744913  46.7536493
  38.3688553  60.5264913  46.1276493  46.2398553  59.6894913  51.7406493
  45.5918553  60.1594913  52.0886493  46.8048553  59.6004913  52.3996493
  46.2278553  59.7454913  51.8896493  45.9278553  61.2264913  48.0386493
  46.2298553  61.6464913  48.7416493  45.9638553  60.3864913  48.2706493
  45.9778553  61.1644913  48.1766493  48.4758553  60.6734913  40.2906493
  48.6828553  60.4724913  41.1146493  49.2318553  60.9414913  39.9486493
  48.6178553  60.6834913  40.3616493  41.7708553  55.5724913  46.1956493
  40.9448553  55.4234913  46.4326493  41.7308553  55.6074913  45.3246493
  41.6428553  55.5554913  46.1016493  49.4978553  56.7564913  41.7646493
  48.7838553  56.2854913  41.9356493  49.3358553  57.0974913  40.9786493
  49.3688553  56.7374913  41.6736493  49.9408553  64.7004913  40.1446493
  50.4168553  63.9714913  40.0966493  49.1198553  64.4144913  40.0686493
  49.8898553  64.5504913  40.1256493  43.4118553  66.6124913  50.9836493
  42.6168553  66.5484913  51.3346493  43.4828553  67.4594913  50.7886493
  43.3048553  66.7274913  51.0066493  34.3358553  55.9704913  52.2306493
  34.1958553  56.7654913  51.8996493  33.5498553  55.7274913  52.5196493
  34.1988553  56.0524913  52.2246493  37.3998553  58.7144913  39.4556493
  37.5258553  58.3854913  38.6576493  36.5878553  58.4654913  39.6546493
  37.2988553  58.6294913  39.3676493  46.1568553  65.8674913  42.4996493
  46.2328553  66.2084913  43.2986493  46.3258553  65.0204913  42.6206493
  46.1928553  65.7924913  42.6356493  43.6788553  65.1414913  42.0646493
  43.3808553  64.8264913  42.8216493  44.3738553  65.6144913  42.2996493
  43.7378553  65.1644913  42.2116493  43.9008553  69.2594913  50.0916493
  44.5878553  69.1454913  50.6166493  44.0348553  70.0504913  49.7476493
  44.0218553  69.3594913  50.1186493  52.0768553  61.8684913  51.9026493
  51.2218553  61.7464913  52.0286493  52.2298553  61.4734913  51.1396493
  51.9728553  61.7914913  51.8086493  46.5898553  62.5334913  50.4786493
  46.3348553  61.8144913  50.9006493  47.4108553  62.6494913  50.7486493
  46.6738553  62.4444913  50.5806493  44.5238553  63.7234913  53.6656493
  44.8468553  64.4094913  53.2336493  43.8198553  64.0464913  54.0676493
  44.4668553  63.8724913  53.6606493  44.3088553  67.1874913  47.5246493
  43.6148553  67.5894913  47.8676493  44.9858553  67.6204913  47.8636493
  44.3058553  67.3104913  47.6256493  49.6858553  69.7804913  54.1046493
  50.4618553  69.3904913  54.1876493  49.2168553  69.4444913  54.7596493
  49.7308553  69.6734913  54.2136493  37.3768553  60.7254913  49.8716493
  37.7518553  61.3444913  49.3846493  38.0508553  60.2514913  50.1566493
  37.5318553  60.7474913  49.8416493  35.1518553  59.1734913  49.1466493
  35.2288553  59.0044913  48.2936493  35.8978553  59.5794913  49.3436493
  35.2728553  59.2084913  49.0496493  50.7108553  61.8134913  39.5866493
  50.8138553  61.7554913  38.7226493  51.4518553  61.4814913  39.9046493
  50.8358553  61.7564913  39.5056493  37.7058553  56.5834913  51.5576493
  37.6248553  55.7394913  51.7636493  37.3918553  56.6274913  50.7446493
  37.6478553  56.4654913  51.4676493  44.6308553  68.7784913  40.6936493
  44.4258553  69.6114913  40.5346493  43.8558553  68.3964913  40.8156493
  44.4858553  68.8454913  40.6886493  49.8128553  61.9594913  48.9426493
  49.8108553  61.0964913  49.0666493  49.8798553  62.2834913  49.7496493
  49.8228553  61.8794913  49.0796493  34.5488553  64.3994913  49.3706493
  34.8688553  64.6184913  48.5896493  34.4488553  63.5344913  49.3156493
  34.5808553  64.3044913  49.2476493  36.0048553  60.3354913  35.9886493
  35.3328553  60.3494913  36.5446493  36.0998553  59.4874913  35.8046493
  35.9198553  60.2124913  36.0436493  45.6918553  56.7594913  52.7246493
  45.7838553  57.4714913  53.2186493  45.0548553  56.3144913  53.1216493
  45.6108553  56.7984913  52.8566493  44.6858553  56.9494913  43.5786493
  43.9858553  57.4674913  43.5226493  44.7238553  56.5694913  42.7946493
  44.5878553  56.9704913  43.4546493  39.9928553  69.0404913  37.1026493
  40.4338553  69.1204913  37.8506493  39.1878553  68.8244913  37.3606493
  39.9388553  69.0204913  37.2516493  48.2838553  57.4654913  46.3786493
  49.1388553  57.5644913  46.5236493  47.9148553  58.0184913  46.9436493
  48.3558553  57.5624913  46.4836493  39.3118553  63.6914913  50.7556493
  38.9158553  64.4654913  50.8306493  38.9058553  63.3184913  50.0796493
  39.1938553  63.7504913  50.6666493  48.5878553  62.7454913  44.8696493
  49.2538553  63.2864913  45.0296493  48.2428553  63.0564913  44.1306493
  48.6348553  62.8714913  44.7846493  37.3218553  68.1104913  37.7036493
  37.0778553  67.8034913  38.4836493  37.2888553  67.4074913  37.1876493
  37.2808553  67.9614913  37.7426493  40.1408553  66.3554913  36.4466493
  39.3228553  66.0874913  36.5866493  40.1128553  67.2074913  36.6316493
  40.0158553  66.4424913  36.4946493  39.7408553  56.6684913  48.2056493
  38.8768553  56.7524913  48.2856493  39.9608553  56.1544913  48.8746493
  39.6458553  56.6054913  48.3166493  51.7588553  55.3034913  49.5346493
  51.7068553  55.2594913  50.4046493  52.4458553  54.8004913  49.3446493
  51.8528553  55.2234913  49.6346493  43.8438553  57.4164913  46.5796493
  43.1068553  56.9624913  46.6926493  44.4148553  57.0144913  47.1026493
  43.8188553  57.2894913  46.6736493  46.5758553  68.2644913  48.3676493
  46.7818553  68.5654913  49.1596493  46.5148553  68.9864913  47.8826493
  46.5968553  68.4154913  48.4126493  41.3468553  61.7454913  51.7836493
  41.0248553  61.1694913  51.2136493  40.9878553  62.5004913  51.5376493
  41.2468553  61.7714913  51.6636493  42.1428553  54.9974913  36.4106493
  42.2208553  55.2444913  35.5776493  41.3998553  55.3744913  36.6686493
  42.0448553  55.0894913  36.3256493  51.3878553  66.9034913  47.8256493
  51.3558553  66.0414913  47.6906493  50.6948553  67.2054913  47.3916493
  51.2808553  66.8204913  47.7416493  49.4928553  70.1634913  46.6226493
  50.0198553  70.0804913  45.9316493  49.1018553  69.3854913  46.6766493
  49.5128553  70.0364913  46.5286493  36.9608553  56.7514913  48.8536493
  36.6178553  55.9844913  48.6196493  36.2658553  57.2754913  48.9176493
  36.8078553  56.7154913  48.8286493  46.0068553  55.6074913  45.8306493
  46.6768553  56.1514913  45.9576493  45.5038553  56.0314913  45.2576493
  46.0318553  55.7504913  45.7646493  45.3658553  61.4154913  43.3236493
  45.9168553  60.8084913  43.6236493  44.9408553  61.6784913  44.0386493
  45.3848553  61.3644913  43.4726493  35.6138553  60.0654913  42.8096493
  35.2458553  60.3674913  43.5406493  36.1478553  59.4364913  43.0936493
  35.6378553  60.0174913  42.9596493  35.3018553  68.4734913  50.3206493
  34.7278553  68.8894913  50.8296493  36.0348553  68.9384913  50.4156493
  35.3258553  68.6034913  50.4096493  47.3358553  63.2464913  39.8856493
  47.4038553  62.3964913  40.0666493  46.5128553  63.3324913  39.6076493
  47.2238553  63.1334913  39.8716493  41.2548553  64.1374913  38.8236493
  41.3548553  64.2764913  37.9686493  42.0728553  64.0774913  39.1196493
  41.3898553  64.1484913  38.7406493  50.6098553  64.6194913  53.0366493
  51.2438553  64.4494913  53.6106493  51.0268553  65.0224913  52.3846493
  50.7648553  64.6544913  53.0256493  46.4898553  68.4664913  38.6256493
  46.2388553  68.3384913  39.4516493  46.1728553  67.7714913  38.2046493
  46.4058553  68.3454913  38.6856493  51.2348553  59.1834913  53.7746493
  51.0388553  59.8274913  54.3296493  50.5128553  58.6934913  53.7666493
  51.0998553  59.2064913  53.8556493  51.1338553  60.1244913  46.7456493
  50.3008553  60.3744913  46.6736493  51.0778553  59.2844913  46.9746493
  51.0028553  60.0374913  46.7686493  40.3938553  57.1124913  51.9396493
  40.6278553  56.5364913  51.3266493  39.5518553  56.9314913  52.0806493
  40.3038553  57.0004913  51.8696493  48.0208553  64.7304913  54.3916493
  48.8918553  64.6944913  54.3556493  47.8018553  65.1504913  53.6596493
  48.1178553  64.7864913  54.2786493  43.3758553  66.6744913  38.0556493
  44.0928553  66.3274913  37.6996493  43.3418553  67.4744913  37.7076493
  43.4768553  66.7414913  37.9516493  44.7848553  55.3154913  22.2944083
  44.5398553  55.8034913  21.6144083  45.6478553  55.2424913  22.1944083
  44.8758553  55.3764913  22.1794083  44.5938553  62.2314913  26.9654083
  44.0698553  62.8274913  27.3284083  44.9908553  61.8634913  27.6494083
  44.5748553  62.2654913  27.1204083  34.4628553  66.3714913  22.4214083
  34.0218553  66.4894913  23.1644083  34.1798553  65.5964913  22.1364083
  34.3558553  66.2744913  22.4894083  50.7378553  69.6724913  19.9364083
  51.4388553  69.1534913  19.9324083  50.1508553  69.2274913  19.4674083
  50.7548553  69.5294913  19.8664083  34.2058553  60.1634913  18.9284083
  33.4278553  60.3254913  18.5684083  34.2448553  59.2924913  18.9504083
  34.0968553  60.0584913  18.8784083  37.3448553  65.4264913  17.6004083
  36.9528553  65.0554913  16.9144083  37.2648553  64.8284913  18.2294083
  37.2748553  65.2834913  17.5914083  47.2648553  63.2984913  23.6414083
  47.3448553  63.3024913  22.7724083  46.6808553  62.6664913  23.7904083
  47.1898553  63.2054913  23.5354083  36.9718553  67.0674913  21.5004083
  37.5798553  66.8974913  22.1034083  36.2208553  66.9274913  21.9214083
  36.9508553  67.0214913  21.6514083  41.2538553  56.4024913  21.4494083
  41.1838553  57.0794913  20.9034083  41.9948553  56.0144913  21.2004083
  41.3528553  56.4454913  21.3314083  35.8628553  70.1584913  17.5774083
  36.3298553  70.2424913  16.8454083  36.3178553  69.5804913  18.0464083
  35.9988553  70.0854913  17.5384083  34.4028553  69.1064913  28.6764083
  34.5318553  68.8264913  29.4924083  33.7928553  68.5654913  28.3674083
  34.3318553  68.9854913  28.7514083  40.9768553  66.6314913  33.7434083
  40.7408553  66.6284913  34.5834083  40.2288553  66.4834913  33.3194083
  40.8308553  66.6084913  33.8044083  35.8488553  63.6274913  22.8784083
  35.3868553  63.2354913  22.2514083  36.5488553  63.1144913  22.9704083
  35.8838553  63.4944913  22.7994083  40.3568553  59.2374913  28.2254083
  41.0348553  59.2554913  27.6764083  40.3118553  58.4014913  28.4704083
  40.4498553  59.1164913  28.1804083  37.8498553  61.7274913  22.9014083
  38.6668553  61.5404913  23.1444083  37.3728553  61.1134913  23.2974083
  37.8998553  61.6094913  22.9964083  42.0538553  67.7084913  25.5114083
  42.4018553  66.9094913  25.5414083  42.7188553  68.2124913  25.2564083
  42.2038553  67.6644913  25.4784083  42.1108553  67.1574913  21.7224083
  42.4418553  66.5134913  22.2084083  42.3508553  66.9464913  20.9114083
  42.1948553  67.0314913  21.6744083  44.0788553  61.2884913  33.0614083
  43.2308553  61.1894913  32.8834083  44.1078553  62.0334913  33.5154083
  43.9578553  61.3844913  33.1024083  38.4468553  56.8214913  22.1674083
  38.1508553  57.3224913  21.5174083  39.3138553  56.8994913  22.1104083
  38.5308553  56.9074913  22.0634083  48.6368553  54.2484913  32.1754083
  48.4788553  55.0174913  31.7934083  47.8648553  54.0284913  32.5194083
  48.4988553  54.3294913  32.1704083  41.4258553  55.9634913  24.3904083
  41.4988553  56.8234913  24.5194083  41.3878553  55.8884913  23.5224083
  41.4308553  56.0794913  24.2814083  46.0988553  58.8894913  16.6894083
  45.6488553  59.5704913  16.9964083  46.2128553  58.3854913  17.3924083
  46.0498553  58.9154913  16.8384083  34.3048553  61.3884913  25.8914083
  34.0488553  62.2194913  25.8164083  33.6408553  61.0054913  26.3084083
  34.1688553  61.4544913  25.9424083  40.0548553  68.9424913  21.2714083
  39.4758553  68.6674913  21.8634083  40.6788553  68.3334913  21.2964083
  40.0618553  68.8124913  21.3624083  37.3338553  56.2054913  26.3824083
  36.8128553  55.5774913  26.0744083  37.9248553  55.7684913  26.8534083
  37.3448553  56.0474913  26.4064083  40.6398553  58.3384913  35.6804083
  40.7568553  57.8844913  34.9444083  40.9278553  59.1364913  35.4774083
  40.6998553  58.3894913  35.5414083  35.7598553  69.7684913  21.7224083
  36.4158553  69.1934913  21.7374083  36.1488553  70.5174913  21.5014083
  35.9148553  69.7934913  21.6924083  51.4928553  58.8624913  22.9844083
  51.1468553  59.5404913  23.4104083  50.8568553  58.2644913  23.0004083
  51.3478553  58.8744913  23.0494083  36.3728553  57.9354913  34.6644083
  35.5948553  57.5454913  34.5924083  36.8638553  57.5234913  34.0734083
  36.3298553  57.8164913  34.5664083  36.5778553  68.2554913  25.2224083
  37.0008553  67.8994913  24.5484083  36.9018553  67.8334913  25.9144083
  36.6878553  68.1404913  25.2254083  43.0218553  55.5784913  33.8324083
  43.1998553  54.7694913  33.5574083  42.8788553  56.0194913  33.0934083
  43.0268553  55.5244913  33.6824083  43.6158553  60.5044913  22.6054083
  43.9028553  60.2724913  21.8154083  44.3478553  60.5834913  23.0744083
  43.7658553  60.4814913  22.5584083  44.3378553  60.8434913  17.7264083
  44.6188553  61.6314913  17.9754083  43.5618553  61.0084913  17.3634083
  44.2648553  60.9844913  17.7094083  51.1678553  57.1854913  28.3534083
  51.9248553  57.2574913  27.9254083  51.2308553  56.4124913  28.7524083
  51.2888553  57.0824913  28.3484083  33.7208553  58.4834913  32.2504083
  33.7168553  59.0704913  32.8964083  34.3148553  58.7954913  31.6934083
  33.8078553  58.6164913  32.2634083  46.0588553  68.8174913  32.7924083
  46.0248553  69.1994913  33.5764083  46.9128553  68.7754913  32.6214083
  46.1798553  68.8674913  32.8834083  43.1968553  69.0144913  17.5424083
  43.0158553  69.5594913  18.1994083  43.9628553  69.3044913  17.2414083
  43.2828553  69.1384913  17.5954083  46.7038553  56.9104913  18.5964083
  47.2438553  56.2284913  18.6724083  46.7658553  57.3084913  19.3704083
  46.7928553  56.8684913  18.7224083  34.6578553  58.0784913  21.1654083
  34.5438553  57.2144913  21.1964083  34.1828553  58.3724913  21.8354083
  34.5708553  57.9944913  21.2684083  36.7998553  70.4884913  29.3804083
  36.1018553  69.9804913  29.5064083  37.0598553  70.2834913  28.5724083
  36.7348553  70.3834913  29.2794083  43.9618553  59.2864913  19.9104083
  43.4538553  58.6244913  19.6564083  44.0138553  59.7904913  19.2004083
  43.8948553  59.2634913  19.7684083  43.9618553  56.2274913  19.8014083
  43.5068553  55.8254913  19.1754083  44.7348553  56.3824913  19.4264083
  44.0088553  56.1914913  19.6534083  42.5598553  58.5944913  24.3234083
  42.6338553  59.1624913  23.6654083  42.6808553  59.0864913  25.0334083
  42.5878553  58.7514913  24.3314083  47.7848553  68.4294913  22.7354083
  48.4858553  67.9474913  22.9244083  47.1248553  67.8604913  22.7804083
  47.7908553  68.2744913  22.7694083  38.1608553  69.3394913  31.9474083
  39.0018553  69.4024913  31.7254083  38.1238553  69.7364913  32.7234083
  38.2798553  69.4074913  32.0294083  37.1678553  54.4174913  22.6714083
  37.7038553  55.1054913  22.6614083  37.1708553  54.1434913  21.8434083
  37.2468553  54.4784913  22.5474083  40.1238553  64.8504913  26.6964083
  40.2958553  64.6404913  27.5254083  39.4688553  64.3164913  26.4804083
  40.0528553  64.7404913  26.7874083  46.3518553  58.7644913  30.2114083
  46.2568553  59.0834913  31.0174083  45.7588553  58.1254913  30.1734083
  46.2498553  58.7164913  30.3254083  40.8738553  64.7884913  29.2864083
  40.9268553  65.6354913  29.4884083  40.5888553  64.4184913  30.0234083
  40.8398553  64.8584913  29.4244083  47.0508553  65.4834913  28.4164083
  46.5368553  65.0714913  28.9874083  46.9248553  66.3274913  28.5974083
  46.9568553  65.5474913  28.5274083  47.6078553  54.7084913  23.0474083
  47.6568553  54.3904913  23.8584083  47.9308553  54.0644913  22.5544083
  47.6628553  54.5664913  23.0944083  33.6948553  69.1594913  35.4974083
  34.4508553  69.5084913  35.7554083  33.8718553  68.3064913  35.4404083
  33.8328553  69.0844913  35.5274083  50.0718553  58.9444913  31.3554083
  50.8438553  58.7194913  31.6924083  49.5968553  59.1614913  32.0554083
  50.1158553  58.9434913  31.5084083  37.6158553  58.2274913  24.3254083
  37.8878553  57.7974913  23.6174083  37.4398553  57.5914913  24.8964083
  37.6298553  58.0704913  24.3054083  50.3038553  65.9224913  18.5434083
  50.4228553  65.6354913  19.3584083  51.1108553  65.9434913  18.2134083
  50.4398553  65.8834913  18.6154083  37.4398553  65.6544913  23.8744083
  38.2908553  65.5744913  23.7014083  37.0828553  64.9724913  23.4624083
  37.5128553  65.5414913  23.7874083  35.7568553  59.3294913  27.4074083
  36.5998553  59.5494913  27.3644083  35.3678553  59.9024913  26.8764083
  35.8238553  59.4464913  27.3224083  48.1988553  62.4594913  18.1284083
  47.9788553  63.1904913  17.7064083  47.7508553  62.5104913  18.8754083
  48.0998553  62.5744913  18.1764083  39.8078553  65.6614913  22.1094083
  40.5208553  66.1564913  22.1994083  40.0298553  65.0944913  21.4834083
  39.9458553  65.6504913  22.0304083  52.3858553  57.3204913  17.5814083
  51.7238553  56.7524913  17.6044083  52.1928553  57.8324913  16.9014083
  52.2598553  57.3124913  17.4844083  33.9638553  67.3044913  25.4294083
  33.2968553  67.7924913  25.7054083  34.6438553  67.8494913  25.4584083
  33.9658553  67.4564913  25.4744083  41.6108553  61.0144913  35.5254083
  41.1268553  61.5914913  35.9674083  41.5828553  61.3094913  34.7044083
  41.5348553  61.1434913  35.4694083  52.7088553  61.6984913  30.1374083
  52.9238553  60.8984913  29.8614083  51.8588553  61.7584913  29.9484083
  52.6148553  61.5894913  30.0684083  34.0298553  63.9884913  20.5324083
  33.8448553  63.1494913  20.6844083  34.6888553  63.9524913  19.9624083
  34.0998553  63.8594913  20.4704083  50.3878553  56.8784913  19.8604083
  51.1338553  56.4714913  20.0594083  50.6508553  57.5934913  19.4354083
  50.5368553  56.9244913  19.8274083  44.3308553  69.3644913  24.4364083
  43.8078553  69.9984913  24.1434083  44.6408553  69.0004913  23.7074083
  44.2988553  69.4044913  24.2854083  34.2018553  68.1524913  20.1074083
  34.7538553  68.7214913  20.4714083  33.9698553  67.6374913  20.7724083
  34.2488553  68.1604913  20.2594083  38.4058553  67.1524913  27.1964083
  38.8728553  67.4414913  27.8744083  38.9778553  66.6744913  26.7424083
  38.5598553  67.1244913  27.2294083  46.8418553  59.1664913  24.9334083
  47.1858553  59.3184913  25.7204083  46.3888553  58.4284913  25.0464083
  46.8258553  59.0794913  25.0664083  34.0318553  66.6014913  17.7354083
  34.7878553  66.1694913  17.7934083  34.0468553  67.1334913  18.4264083
  34.1458553  66.6164913  17.8464083  34.9718553  64.8224913  25.7404083
  35.4028553  64.6934913  24.9934083  34.7668553  65.6704913  25.7144083
  35.0048553  64.9284913  25.6264083  41.3178553  58.3864913  19.3904083
  41.3158553  58.2694913  18.5254083  41.1368553  59.2344913  19.4824083
  41.2908553  58.4944913  19.2764083  39.0558553  68.3384913  24.0224083
  39.1818553  69.1814913  24.2094083  39.7238553  67.9394913  24.4184083
  39.1738553  68.4044913  24.1084083  37.1858553  61.8214913  33.8844083
  36.6498553  61.3154913  34.3524083  37.2058553  61.4314913  33.1044083
  37.1088553  61.6884913  33.8384083  37.6708553  61.2184913  19.0244083
  37.5428553  60.7704913  19.7624083  37.0888553  60.8764913  18.4724083
  37.5658553  61.1014913  19.0524083  37.8378553  63.0484913  25.6234083
  37.0568553  62.9894913  25.2404083  37.9098553  62.2964913  26.0604083
  37.7328553  62.9294913  25.6314083  38.2678553  62.7854913  29.0914083
  38.2928553  62.1104913  28.5404083  37.6218553  63.2814913  28.7794083
  38.1768553  62.7584913  28.9644083  48.1628553  60.4984913  27.4874083
  47.5008553  60.8264913  27.9504083  48.3498553  61.1324913  26.9184083
  48.0928553  60.6404913  27.4714083  44.8078553  56.4044913  30.9164083
  44.9568553  55.5794913  30.6734083  45.1868553  56.4594913  31.7004083
  44.8858553  56.2904913  30.9964083  46.3558553  58.4674913  20.9984083
  46.8458553  59.1844913  20.9214083  45.5658553  58.7284913  20.7354083
  46.3118553  58.6114913  20.9484083  36.0668553  64.1404913  34.6504083
  36.0298553  64.6414913  33.9364083  36.3978553  63.3884913  34.3554083
  36.1098553  64.1024913  34.5014083  47.6698553  66.3454913  32.9084083
  48.1538553  67.0634913  33.0064083  48.0638553  65.9184913  32.2574083
  47.7998553  66.3884913  32.8264083  41.9658553  69.1904913  34.0854083
  42.3198553  69.0124913  34.8624083  41.5298553  68.4614913  33.8864083
  41.9538553  69.0564913  34.1714083  42.9378553  59.9374913  26.7234083
  43.4178553  60.6364913  26.9314083  43.3108553  59.2904913  27.1744083
  43.0638553  59.9454913  26.8204083  45.1268553  63.1064913  18.9974083
  45.1188553  63.8284913  18.5074083  44.4878553  63.2414913  19.5744083
  45.0318553  63.2334913  19.0104083  50.0988553  66.9764913  22.9784083
  50.4548553  66.6264913  23.6934083  50.0908553  66.3154913  22.4084083
  50.1508553  66.8264913  22.9994083  46.1438553  70.0424913  26.8224083
  45.5408553  69.7464913  26.2654083  46.6888553  70.4944913  26.3134083
  46.1348553  70.0654913  26.6644083  46.1568553  66.8934913  26.2224083
  45.3598553  67.1174913  26.4964083  46.4148553  66.2994913  26.8074083
  46.0768553  66.8384913  26.3494083  39.7198553  55.4484913  18.6584083
  39.8168553  55.3414913  19.5194083  39.0118553  55.9544913  18.5934083
  39.6298553  55.5074913  18.7764083  49.4168553  64.8914913  31.0684083
  49.4718553  65.0164913  30.2064083  50.1698553  65.2114913  31.3704083
  49.5358553  64.9564913  30.9854083  50.4488553  55.1894913  34.0554083
  49.8118553  54.7894913  33.6134083  50.4748553  54.7584913  34.8134083
  50.3588553  55.0674913  34.1014083  36.8418553  63.7554913  19.9014083
  37.1658553  62.9764913  19.6794083  37.4878553  64.1234913  20.3564083
  36.9848553  63.6944913  19.9354083  45.1478553  64.6974913  30.6684083
  44.9928553  65.3074913  31.2724083  45.6818553  64.1394913  31.0744083
  45.2038553  64.7054913  30.8174083  33.8388553  55.4164913  20.8694083
  33.9678553  54.7084913  20.3774083  33.4718553  55.0984913  21.5944083
  33.8038553  55.2644913  20.9044083  43.5318553  63.0974913  21.3264083
  43.5908553  63.7474913  21.9054083  43.3428553  62.4014913  21.8174083
  43.5128553  63.0904913  21.4844083  48.7578553  67.4264913  27.1954083
  48.2788553  67.7244913  26.5294083  48.4018553  66.6504913  27.3734083
  48.6348553  67.3554913  27.1234083  38.0278553  57.6144913  17.8384083
  37.5168553  57.6674913  17.1324083  38.8118553  57.8544913  17.5424083
  38.0678553  57.6574913  17.6904083  42.7548553  65.1444913  25.7574083
  41.9078553  64.9504913  25.8384083  43.0788553  64.9794913  26.5504083
  42.6768553  65.0914913  25.8864083  36.6028553  64.8374913  28.0734083
  37.3248553  65.3254913  28.0364083  36.3328553  64.8074913  27.2444083
  36.6698553  64.9054913  27.9454083  39.8328553  60.0084913  24.8084083
  40.6788553  59.8184913  24.9064083  39.4628553  59.2314913  24.6704083
  39.9028553  59.8654913  24.8024083  34.6538553  61.3464913  21.4634083
  35.1428553  61.0544913  22.1244083  34.7828553  60.7534913  20.8364083
  34.7448553  61.2154913  21.4684083  49.6888553  64.3684913  28.3144083
  49.6818553  63.5924913  28.7124083  48.8478553  64.6024913  28.3074083
  49.5638553  64.2884913  28.3724083  39.1788553  62.7804913  16.9494083
  38.5688553  62.3754913  17.4234083  38.7928553  62.8984913  16.1764083
  39.0318553  62.7374913  16.9054083  35.9978553  65.8894913  32.3514083
  35.5768553  65.3714913  31.7904083  35.6458553  66.6754913  32.2084083
  35.8838553  65.9294913  32.2474083  50.9448553  64.4394913  25.7514083
  50.6588553  64.8404913  26.4714083  51.8048553  64.3774913  25.8784083
  51.0298553  64.4894913  25.8764083  40.6338553  61.2414913  19.6594083
  40.9058553  62.0674913  19.7264083  39.7708553  61.3164913  19.5634083
  40.5468553  61.3744913  19.6544083  48.6068553  58.3634913  34.2914083
  48.0818553  58.8224913  34.8154083  48.2458553  57.5684913  34.2854083
  48.4758553  58.3134913  34.3674083  34.1138553  57.2114913  26.1954083
  34.1578553  57.5554913  25.3944083  34.8688553  57.4484913  26.5624083
  34.2318553  57.2974913  26.1314083  52.0758553  70.0724913  26.2804083
  52.3658553  70.3294913  25.4994083  52.7708553  70.1684913  26.7994083
  52.2218553  70.1244913  26.2414083  47.0988553  61.9324913  34.3674083
  47.1718553  62.0364913  35.2304083  46.4648553  62.4904913  34.1464083
  47.0158553  62.0304913  34.4624083  49.3668553  62.2514913  32.7324083
  49.6858553  63.0374913  32.9354083  48.9968553  61.9814913  33.4754083
  49.3598553  62.3274913  32.8724083  48.6808553  68.6754913  18.2624083
  49.0148553  67.8694913  18.2974083  47.9258553  68.6034913  18.6924083
  48.6188553  68.5454913  18.3314083  49.1628553  60.5094913  23.9214083
  48.4178553  60.1864913  24.2394083  49.1648553  61.3354913  24.2014083
  49.0528553  60.5834913  24.0094083  52.0648553  62.7934913  35.4674083
  52.0128553  62.4524913  34.6664083  52.8018553  63.2604913  35.4454083
  52.1658553  62.8124913  35.3454083  51.6028553  66.4694913  31.6734083
  52.2308553  65.9204913  31.4174083  51.5418553  67.0344913  31.0114083
  51.6868553  66.4724913  31.5374083  46.0548553  66.5504913  17.6654083
  46.7388553  66.0364913  17.4964083  45.6378553  66.5964913  16.9004083
  46.0938553  66.4814913  17.5274083  40.7368553  67.7004913  28.9694083
  40.4388553  68.2924913  29.5364083  40.7918553  68.1424913  28.2204083
  40.7008553  67.8534913  28.9424083  38.7158553  66.6504913  32.3674083
  37.9098553  66.3604913  32.5344083  38.6268553  67.5184913  32.3734083
  38.5838553  66.7354913  32.3924083  48.0748553  56.8394913  31.3824083
  48.8188553  57.2914913  31.3194083  47.5088553  57.3094913  30.9134083
  48.1018553  56.9764913  31.3044083  43.2528553  64.1234913  28.4604083
  43.7288553  64.4974913  29.0884083  42.4298553  64.2574913  28.7194083
  43.2018553  64.1984913  28.5914083  39.9628553  59.7264913  31.2014083
  40.1238553  58.9824913  31.6284083  39.9178553  59.4774913  30.3664083
  39.9798553  59.5794913  31.1414083  49.3598553  54.8194913  29.0524083
  49.0798553  55.6444913  29.0084083  50.0758553  54.8724913  29.5484083
  49.4248553  54.9494913  29.1194083  41.7148553  55.5344913  31.0814083
  42.4198553  55.8544913  30.6794083  41.9558553  54.7274913  31.3084083
  41.8538553  55.4624913  31.0554083  40.6998553  69.7444913  27.0774083
  40.0758553  70.3264913  26.8954083  40.9478553  69.4584913  26.2914083
  40.6438553  69.7884913  26.9344083  45.0088553  66.3784913  34.0664083
  45.7658553  66.6644913  33.7404083  44.4618553  66.4304913  33.3884083
  45.0398553  66.4284913  33.9174083  48.9178553  68.9284913  32.5704083
  49.2638553  69.1984913  33.3244083  49.2118553  69.5104913  31.9904083
  49.0128553  69.0544913  32.5964083  50.7808553  61.0744913  17.9094083
  51.1588553  61.7514913  17.5094083  49.9388553  61.2984913  17.9404083
  50.7118553  61.2074913  17.8544083  42.2938553  64.5204913  16.9924083
  41.4888553  64.3434913  16.7074083  42.2608553  65.3714913  17.1844083
  42.1698553  64.6194913  16.9794083  38.2238553  60.5874913  27.1424083
  38.6638553  60.4844913  26.3964083  38.7688553  60.2744913  27.7474083
  38.3688553  60.5264913  27.1214083  46.2398553  59.6894913  32.7344083
  45.5918553  60.1594913  33.0824083  46.8048553  59.6004913  33.3934083
  46.2278553  59.7454913  32.8834083  45.9278553  61.2264913  29.0324083
  46.2298553  61.6464913  29.7354083  45.9638553  60.3864913  29.2644083
  45.9778553  61.1644913  29.1704083  48.4758553  60.6734913  21.2844083
  48.6828553  60.4724913  22.1084083  49.2318553  60.9414913  20.9424083
  48.6178553  60.6834913  21.3554083  41.7708553  55.5724913  27.1894083
  40.9448553  55.4234913  27.4264083  41.7308553  55.6074913  26.3184083
  41.6428553  55.5554913  27.0954083  49.4978553  56.7564913  22.7584083
  48.7838553  56.2854913  22.9294083  49.3358553  57.0974913  21.9724083
  49.3688553  56.7374913  22.6674083  49.9408553  64.7004913  21.1384083
  50.4168553  63.9714913  21.0904083  49.1198553  64.4144913  21.0624083
  49.8898553  64.5504913  21.1194083  43.4118553  66.6124913  31.9774083
  42.6168553  66.5484913  32.3284083  43.4828553  67.4594913  31.7824083
  43.3048553  66.7274913  32.0004083  34.3358553  55.9704913  33.2244083
  34.1958553  56.7654913  32.8934083  33.5498553  55.7274913  33.5134083
  34.1988553  56.0524913  33.2184083  37.3998553  58.7144913  20.4494083
  37.5258553  58.3854913  19.6514083  36.5878553  58.4654913  20.6484083
  37.2988553  58.6294913  20.3614083  46.1568553  65.8674913  23.4934083
  46.2328553  66.2084913  24.2924083  46.3258553  65.0204913  23.6144083
  46.1928553  65.7924913  23.6294083  43.6788553  65.1414913  23.0584083
  43.3808553  64.8264913  23.8154083  44.3738553  65.6144913  23.2934083
  43.7378553  65.1644913  23.2054083  43.9008553  69.2594913  31.0854083
  44.5878553  69.1454913  31.6104083  44.0348553  70.0504913  30.7414083
  44.0218553  69.3594913  31.1124083  52.0768553  61.8684913  32.8964083
  51.2218553  61.7464913  33.0224083  52.2298553  61.4734913  32.1334083
  51.9728553  61.7914913  32.8024083  46.5898553  62.5334913  31.4724083
  46.3348553  61.8144913  31.8944083  47.4108553  62.6494913  31.7424083
  46.6738553  62.4444913  31.5744083  44.5238553  63.7234913  34.6594083
  44.8468553  64.4094913  34.2274083  43.8198553  64.0464913  35.0614083
  44.4668553  63.8724913  34.6544083  44.3088553  67.1874913  28.5184083
  43.6148553  67.5894913  28.8614083  44.9858553  67.6204913  28.8574083
  44.3058553  67.3104913  28.6194083  49.6858553  69.7804913  35.0984083
  50.4618553  69.3904913  35.1814083  49.2168553  69.4444913  35.7534083
  49.7308553  69.6734913  35.2074083  37.3768553  60.7254913  30.8654083
  37.7518553  61.3444913  30.3784083  38.0508553  60.2514913  31.1504083
  37.5318553  60.7474913  30.8354083  35.1518553  59.1734913  30.1404083
  35.2288553  59.0044913  29.2874083  35.8978553  59.5794913  30.3374083
  35.2728553  59.2084913  30.0434083  50.7108553  61.8134913  20.5804083
  50.8138553  61.7554913  19.7164083  51.4518553  61.4814913  20.8984083
  50.8358553  61.7564913  20.4994083  37.7058553  56.5834913  32.5514083
  37.6248553  55.7394913  32.7574083  37.3918553  56.6274913  31.7384083
  37.6478553  56.4654913  32.4614083  44.6308553  68.7784913  21.6874083
  44.4258553  69.6114913  21.5284083  43.8558553  68.3964913  21.8094083
  44.4858553  68.8454913  21.6824083  49.8128553  61.9594913  29.9364083
  49.8108553  61.0964913  30.0604083  49.8798553  62.2834913  30.7434083
  49.8228553  61.8794913  30.0734083  34.5488553  64.3994913  30.3644083
  34.8688553  64.6184913  29.5834083  34.4488553  63.5344913  30.3094083
  34.5808553  64.3044913  30.2414083  36.0048553  60.3354913  16.9824083
  35.3328553  60.3494913  17.5384083  36.0998553  59.4874913  16.7984083
  35.9198553  60.2124913  17.0374083  45.6918553  56.7594913  33.7184083
  45.7838553  57.4714913  34.2124083  45.0548553  56.3144913  34.1154083
  45.6108553  56.7984913  33.8504083  44.6858553  56.9494913  24.5724083
  43.9858553  57.4674913  24.5164083  44.7238553  56.5694913  23.7884083
  44.5878553  56.9704913  24.4484083  39.9928553  69.0404913  18.0964083
  40.4338553  69.1204913  18.8444083  39.1878553  68.8244913  18.3544083
  39.9388553  69.0204913  18.2454083  48.2838553  57.4654913  27.3724083
  49.1388553  57.5644913  27.5174083  47.9148553  58.0184913  27.9374083
  48.3558553  57.5624913  27.4774083  39.3118553  63.6914913  31.7494083
  38.9158553  64.4654913  31.8244083  38.9058553  63.3184913  31.0734083
  39.1938553  63.7504913  31.6604083  48.5878553  62.7454913  25.8634083
  49.2538553  63.2864913  26.0234083  48.2428553  63.0564913  25.1244083
  48.6348553  62.8714913  25.7784083  37.3218553  68.1104913  18.6974083
  37.0778553  67.8034913  19.4774083  37.2888553  67.4074913  18.1814083
  37.2808553  67.9614913  18.7364083  40.1408553  66.3554913  17.4404083
  39.3228553  66.0874913  17.5804083  40.1128553  67.2074913  17.6254083
  40.0158553  66.4424913  17.4884083  39.7408553  56.6684913  29.1994083
  38.8768553  56.7524913  29.2794083  39.9608553  56.1544913  29.8684083
  39.6458553  56.6054913  29.3104083  51.7588553  55.3034913  30.5284083
  51.7068553  55.2594913  31.3984083  52.4458553  54.8004913  30.3384083
  51.8528553  55.2234913  30.6284083  43.8438553  57.4164913  27.5734083
  43.1068553  56.9624913  27.6864083  44.4148553  57.0144913  28.0964083
  43.8188553  57.2894913  27.6674083  46.5758553  68.2644913  29.3614083
  46.7818553  68.5654913  30.1534083  46.5148553  68.9864913  28.8764083
  46.5968553  68.4154913  29.4064083  41.3468553  61.7454913  32.7774083
  41.0248553  61.1694913  32.2074083  40.9878553  62.5004913  32.5314083
  41.2468553  61.7714913  32.6574083  42.1428553  54.9974913  17.4044083
  42.2208553  55.2444913  16.5714083  41.3998553  55.3744913  17.6624083
  42.0448553  55.0894913  17.3194083  51.3878553  66.9034913  28.8194083
  51.3558553  66.0414913  28.6844083  50.6948553  67.2054913  28.3854083
  51.2808553  66.8204913  28.7354083  49.4928553  70.1634913  27.6164083
  50.0198553  70.0804913  26.9254083  49.1018553  69.3854913  27.6704083
  49.5128553  70.0364913  27.5224083  36.9608553  56.7514913  29.8474083
  36.6178553  55.9844913  29.6134083  36.2658553  57.2754913  29.9114083
  36.8078553  56.7154913  29.8224083  46.0068553  55.6074913  26.8244083
  46.6768553  56.1514913  26.9514083  45.5038553  56.0314913  26.2514083
  46.0318553  55.7504913  26.7584083  45.3658553  61.4154913  24.3174083
  45.9168553  60.8084913  24.6174083  44.9408553  61.6784913  25.0324083
  45.3848553  61.3644913  24.4664083  35.6138553  60.0654913  23.8034083
  35.2458553  60.3674913  24.5344083  36.1478553  59.4364913  24.0874083
  35.6378553  60.0174913  23.9534083  35.3018553  68.4734913  31.3144083
  34.7278553  68.8894913  31.8234083  36.0348553  68.9384913  31.4094083
  35.3258553  68.6034913  31.4034083  47.3358553  63.2464913  20.8794083
  47.4038553  62.3964913  21.0604083  46.5128553  63.3324913  20.6014083
  47.2238553  63.1334913  20.8654083  41.2548553  64.1374913  19.8174083
  41.3548553  64.2764913  18.9624083  42.0728553  64.0774913  20.1134083
  41.3898553  64.1484913  19.7344083  50.6098553  64.6194913  34.0304083
  51.2438553  64.4494913  34.6044083  51.0268553  65.0224913  33.3784083
  50.7648553  64.6544913  34.0194083  46.4898553  68.4664913  19.6194083
  46.2388553  68.3384913  20.4454083  46.1728553  67.7714913  19.1984083
  46.4058553  68.3454913  19.6794083  51.2348553  59.1834913  34.7684083
  51.0388553  59.8274913  35.3234083  50.5128553  58.6934913  34.7604083
  51.0998553  59.2064913  34.8494083  51.1338553  60.1244913  27.7394083
  50.3008553  60.3744913  27.6674083  51.0778553  59.2844913  27.9684083
  51.0028553  60.0374913  27.7624083  40.3938553  57.1124913  32.9334083
  40.6278553  56.5364913  32.3204083  39.5518553  56.9314913  33.0744083
  40.3038553  57.0004913  32.8634083  48.0208553  64.7304913  35.3854083
  48.8918553  64.6944913  35.3494083  47.8018553  65.1504913  34.6534083
  48.1178553  64.7864913  35.2724083  43.3758553  66.6744913  19.0494083
  44.0928553  66.3274913  18.6934083  43.3418553  67.4744913  18.7014083
  43.4768553  66.7414913  18.9454083  44.7848553  55.3154913   3.2881673
  44.5398553  55.8034913   2.6081673  45.6478553  55.2424913   3.1881673
  44.8758553  55.3764913   3.1731673  44.5938553  62.2314913   7.9591673
  44.0698553  62.8274913   8.3221673  44.9908553  61.8634913   8.6431673
  44.5748553  62.2654913   8.1141673  34.4628553  66.3714913   3.4151673
  34.0218553  66.4894913   4.1581673  34.1798553  65.5964913   3.1301673
  34.3558553  66.2744913   3.4831673  47.2648553  63.2984913   4.6351673
  47.3448553  63.3024913   3.7661673  46.6808553  62.6664913   4.7841673
  47.1898553  63.2054913   4.5291673  36.9718553  67.0674913   2.4941673
  37.5798553  66.8974913   3.0971673  36.2208553  66.9274913   2.9151673
  36.9508553  67.0214913   2.6451673  41.2538553  56.4024913   2.4431673
  41.1838553  57.0794913   1.8971673  41.9948553  56.0144913   2.1941673
  41.3528553  56.4454913   2.3251673  34.4028553  69.1064913   9.6701673
  34.5318553  68.8264913  10.4861673  33.7928553  68.5654913   9.3611673
  34.3318553  68.9854913   9.7451673  40.9768553  66.6314913  14.7371673
  40.7408553  66.6284913  15.5771673  40.2288553  66.4834913  14.3131673
  40.8308553  66.6084913  14.7981673  35.8488553  63.6274913   3.8721673
  35.3868553  63.2354913   3.2451673  36.5488553  63.1144913   3.9641673
  35.8838553  63.4944913   3.7931673  40.3568553  59.2374913   9.2191673
  41.0348553  59.2554913   8.6701673  40.3118553  58.4014913   9.4641673
  40.4498553  59.1164913   9.1741673  37.8498553  61.7274913   3.8951673
  38.6668553  61.5404913   4.1381673  37.3728553  61.1134913   4.2911673
  37.8998553  61.6094913   3.9901673  42.0538553  67.7084913   6.5051673
  42.4018553  66.9094913   6.5351673  42.7188553  68.2124913   6.2501673
  42.2038553  67.6644913   6.4721673  42.1108553  67.1574913   2.7161673
  42.4418553  66.5134913   3.2021673  42.3508553  66.9464913   1.9051673
  42.1948553  67.0314913   2.6681673  44.0788553  61.2884913  14.0551673
  43.2308553  61.1894913  13.8771673  44.1078553  62.0334913  14.5091673
  43.9578553  61.3844913  14.0961673  38.4468553  56.8214913   3.1611673
  38.1508553  57.3224913   2.5111673  39.3138553  56.8994913   3.1041673
  38.5308553  56.9074913   3.0571673  48.6368553  54.2484913  13.1691673
  48.4788553  55.0174913  12.7871673  47.8648553  54.0284913  13.5131673
  48.4988553  54.3294913  13.1641673  41.4258553  55.9634913   5.3841673
  41.4988553  56.8234913   5.5131673  41.3878553  55.8884913   4.5161673
  41.4308553  56.0794913   5.2751673  34.3048553  61.3884913   6.8851673
  34.0488553  62.2194913   6.8101673  33.6408553  61.0054913   7.3021673
  34.1688553  61.4544913   6.9361673  40.0548553  68.9424913   2.2651673
  39.4758553  68.6674913   2.8571673  40.6788553  68.3334913   2.2901673
  40.0618553  68.8124913   2.3561673  37.3338553  56.2054913   7.3761673
  36.8128553  55.5774913   7.0681673  37.9248553  55.7684913   7.8471673
  37.3448553  56.0474913   7.4001673  40.6398553  58.3384913  16.6741673
  40.7568553  57.8844913  15.9381673  40.9278553  59.1364913  16.4711673
  40.6998553  58.3894913  16.5351673  35.7598553  69.7684913   2.7161673
  36.4158553  69.1934913   2.7311673  36.1488553  70.5174913   2.4951673
  35.9148553  69.7934913   2.6861673  51.4928553  58.8624913   3.9781673
  51.1468553  59.5404913   4.4041673  50.8568553  58.2644913   3.9941673
  51.3478553  58.8744913   4.0431673  36.3728553  57.9354913  15.6581673
  35.5948553  57.5454913  15.5861673  36.8638553  57.5234913  15.0671673
  36.3298553  57.8164913  15.5601673  36.5778553  68.2554913   6.2161673
  37.0008553  67.8994913   5.5421673  36.9018553  67.8334913   6.9081673
  36.6878553  68.1404913   6.2191673  43.0218553  55.5784913  14.8261673
  43.1998553  54.7694913  14.5511673  42.8788553  56.0194913  14.0871673
  43.0268553  55.5244913  14.6761673  43.6158553  60.5044913   3.5991673
  43.9028553  60.2724913   2.8091673  44.3478553  60.5834913   4.0681673
  43.7658553  60.4814913   3.5521673  51.1678553  57.1854913   9.3471673
  51.9248553  57.2574913   8.9191673  51.2308553  56.4124913   9.7461673
  51.2888553  57.0824913   9.3421673  33.7208553  58.4834913  13.2441673
  33.7168553  59.0704913  13.8901673  34.3148553  58.7954913  12.6871673
  33.8078553  58.6164913  13.2571673  46.0588553  68.8174913  13.7861673
  46.0248553  69.1994913  14.5701673  46.9128553  68.7754913  13.6151673
  46.1798553  68.8674913  13.8771673  34.6578553  58.0784913   2.1591673
  34.5438553  57.2144913   2.1901673  34.1828553  58.3724913   2.8291673
  34.5708553  57.9944913   2.2621673  36.7998553  70.4884913  10.3741673
  36.1018553  69.9804913  10.5001673  37.0598553  70.2834913   9.5661673
  36.7348553  70.3834913  10.2731673  42.5598553  58.5944913   5.3171673
  42.6338553  59.1624913   4.6591673  42.6808553  59.0864913   6.0271673
  42.5878553  58.7514913   5.3251673  47.7848553  68.4294913   3.7291673
  48.4858553  67.9474913   3.9181673  47.1248553  67.8604913   3.7741673
  47.7908553  68.2744913   3.7631673  38.1608553  69.3394913  12.9411673
  39.0018553  69.4024913  12.7191673  38.1238553  69.7364913  13.7171673
  38.2798553  69.4074913  13.0231673  37.1678553  54.4174913   3.6651673
  37.7038553  55.1054913   3.6551673  37.1708553  54.1434913   2.8371673
  37.2468553  54.4784913   3.5411673  40.1238553  64.8504913   7.6901673
  40.2958553  64.6404913   8.5191673  39.4688553  64.3164913   7.4741673
  40.0528553  64.7404913   7.7811673  46.3518553  58.7644913  11.2051673
  46.2568553  59.0834913  12.0111673  45.7588553  58.1254913  11.1671673
  46.2498553  58.7164913  11.3191673  40.8738553  64.7884913  10.2801673
  40.9268553  65.6354913  10.4821673  40.5888553  64.4184913  11.0171673
  40.8398553  64.8584913  10.4181673  47.0508553  65.4834913   9.4101673
  46.5368553  65.0714913   9.9811673  46.9248553  66.3274913   9.5911673
  46.9568553  65.5474913   9.5211673  47.6078553  54.7084913   4.0411673
  47.6568553  54.3904913   4.8521673  47.9308553  54.0644913   3.5481673
  47.6628553  54.5664913   4.0881673  33.6948553  69.1594913  16.4911673
  34.4508553  69.5084913  16.7491673  33.8718553  68.3064913  16.4341673
  33.8328553  69.0844913  16.5211673  50.0718553  58.9444913  12.3491673
  50.8438553  58.7194913  12.6861673  49.5968553  59.1614913  13.0491673
  50.1158553  58.9434913  12.5021673  37.6158553  58.2274913   5.3191673
  37.8878553  57.7974913   4.6111673  37.4398553  57.5914913   5.8901673
  37.6298553  58.0704913   5.2991673  37.4398553  65.6544913   4.8681673
  38.2908553  65.5744913   4.6951673  37.0828553  64.9724913   4.4561673
  37.5128553  65.5414913   4.7811673  35.7568553  59.3294913   8.4011673
  36.5998553  59.5494913   8.3581673  35.3678553  59.9024913   7.8701673
  35.8238553  59.4464913   8.3161673  39.8078553  65.6614913   3.1031673
  40.5208553  66.1564913   3.1931673  40.0298553  65.0944913   2.4771673
  39.9458553  65.6504913   3.0241673  33.9638553  67.3044913   6.4231673
  33.2968553  67.7924913   6.6991673  34.6438553  67.8494913   6.4521673
  33.9658553  67.4564913   6.4681673  41.6108553  61.0144913  16.5191673
  41.1268553  61.5914913  16.9611673  41.5828553  61.3094913  15.6981673
  41.5348553  61.1434913  16.4631673  52.7088553  61.6984913  11.1311673
  52.9238553  60.8984913  10.8551673  51.8588553  61.7584913  10.9421673
  52.6148553  61.5894913  11.0621673  44.3308553  69.3644913   5.4301673
  43.8078553  69.9984913   5.1371673  44.6408553  69.0004913   4.7011673
  44.2988553  69.4044913   5.2791673  38.4058553  67.1524913   8.1901673
  38.8728553  67.4414913   8.8681673  38.9778553  66.6744913   7.7361673
  38.5598553  67.1244913   8.2231673  46.8418553  59.1664913   5.9271673
  47.1858553  59.3184913   6.7141673  46.3888553  58.4284913   6.0401673
  46.8258553  59.0794913   6.0601673  34.9718553  64.8224913   6.7341673
  35.4028553  64.6934913   5.9871673  34.7668553  65.6704913   6.7081673
  35.0048553  64.9284913   6.6201673  39.0558553  68.3384913   5.0161673
  39.1818553  69.1814913   5.2031673  39.7238553  67.9394913   5.4121673
  39.1738553  68.4044913   5.1021673  37.1858553  61.8214913  14.8781673
  36.6498553  61.3154913  15.3461673  37.2058553  61.4314913  14.0981673
  37.1088553  61.6884913  14.8321673  37.8378553  63.0484913   6.6171673
  37.0568553  62.9894913   6.2341673  37.9098553  62.2964913   7.0541673
  37.7328553  62.9294913   6.6251673  38.2678553  62.7854913  10.0851673
  38.2928553  62.1104913   9.5341673  37.6218553  63.2814913   9.7731673
  38.1768553  62.7584913   9.9581673  48.1628553  60.4984913   8.4811673
  47.5008553  60.8264913   8.9441673  48.3498553  61.1324913   7.9121673
  48.0928553  60.6404913   8.4651673  44.8078553  56.4044913  11.9101673
  44.9568553  55.5794913  11.6671673  45.1868553  56.4594913  12.6941673
  44.8858553  56.2904913  11.9901673  46.3558553  58.4674913   1.9921673
  46.8458553  59.1844913   1.9151673  45.5658553  58.7284913   1.7291673
  46.3118553  58.6114913   1.9421673  36.0668553  64.1404913  15.6441673
  36.0298553  64.6414913  14.9301673  36.3978553  63.3884913  15.3491673
  36.1098553  64.1024913  15.4951673  47.6698553  66.3454913  13.9021673
  48.1538553  67.0634913  14.0001673  48.0638553  65.9184913  13.2511673
  47.7998553  66.3884913  13.8201673  41.9658553  69.1904913  15.0791673
  42.3198553  69.0124913  15.8561673  41.5298553  68.4614913  14.8801673
  41.9538553  69.0564913  15.1651673  42.9378553  59.9374913   7.7171673
  43.4178553  60.6364913   7.9251673  43.3108553  59.2904913   8.1681673
  43.0638553  59.9454913   7.8141673  50.0988553  66.9764913   3.9721673
  50.4548553  66.6264913   4.6871673  50.0908553  66.3154913   3.4021673
  50.1508553  66.8264913   3.9931673  46.1438553  70.0424913   7.8161673
  45.5408553  69.7464913   7.2591673  46.6888553  70.4944913   7.3071673
  46.1348553  70.0654913   7.6581673  46.1568553  66.8934913   7.2161673
  45.3598553  67.1174913   7.4901673  46.4148553  66.2994913   7.8011673
  46.0768553  66.8384913   7.3431673  49.4168553  64.8914913  12.0621673
  49.4718553  65.0164913  11.2001673  50.1698553  65.2114913  12.3641673
  49.5358553  64.9564913  11.9791673  50.4488553  55.1894913  15.0491673
  49.8118553  54.7894913  14.6071673  50.4748553  54.7584913  15.8071673
  50.3588553  55.0674913  15.0951673  45.1478553  64.6974913  11.6621673
  44.9928553  65.3074913  12.2661673  45.6818553  64.1394913  12.0681673
  45.2038553  64.7054913  11.8111673  33.8388553  55.4164913   1.8631673
  33.9678553  54.7084913   1.3711673  33.4718553  55.0984913   2.5881673
  33.8038553  55.2644913   1.8981673  43.5318553  63.0974913   2.3201673
  43.5908553  63.7474913   2.8991673  43.3428553  62.4014913   2.8111673
  43.5128553  63.0904913   2.4781673  48.7578553  67.4264913   8.1891673
  48.2788553  67.7244913   7.5231673  48.4018553  66.6504913   8.3671673
  48.6348553  67.3554913   8.1171673  42.7548553  65.1444913   6.7511673
  41.9078553  64.9504913   6.8321673  43.0788553  64.9794913   7.5441673
  42.6768553  65.0914913   6.8801673  36.6028553  64.8374913   9.0671673
  37.3248553  65.3254913   9.0301673  36.3328553  64.8074913   8.2381673
  36.6698553  64.9054913   8.9391673  39.8328553  60.0084913   5.8021673
  40.6788553  59.8184913   5.9001673  39.4628553  59.2314913   5.6641673
  39.9028553  59.8654913   5.7961673  34.6538553  61.3464913   2.4571673
  35.1428553  61.0544913   3.1181673  34.7828553  60.7534913   1.8301673
  34.7448553  61.2154913   2.4621673  49.6888553  64.3684913   9.3081673
  49.6818553  63.5924913   9.7061673  48.8478553  64.6024913   9.3011673
  49.5638553  64.2884913   9.3661673  35.9978553  65.8894913  13.3451673
  35.5768553  65.3714913  12.7841673  35.6458553  66.6754913  13.2021673
  35.8838553  65.9294913  13.2411673  50.9448553  64.4394913   6.7451673
  50.6588553  64.8404913   7.4651673  51.8048553  64.3774913   6.8721673
  51.0298553  64.4894913   6.8701673  48.6068553  58.3634913  15.2851673
  48.0818553  58.8224913  15.8091673  48.2458553  57.5684913  15.2791673
  48.4758553  58.3134913  15.3611673  34.1138553  57.2114913   7.1891673
  34.1578553  57.5554913   6.3881673  34.8688553  57.4484913   7.5561673
  34.2318553  57.2974913   7.1251673  52.0758553  70.0724913   7.2741673
  52.3658553  70.3294913   6.4931673  52.7708553  70.1684913   7.7931673
  52.2218553  70.1244913   7.2351673  47.0988553  61.9324913  15.3611673
  47.1718553  62.0364913  16.2241673  46.4648553  62.4904913  15.1401673
  47.0158553  62.0304913  15.4561673  49.3668553  62.2514913  13.7261673
  49.6858553  63.0374913  13.9291673  48.9968553  61.9814913  14.4691673
  49.3598553  62.3274913  13.8661673  49.1628553  60.5094913   4.9151673
  48.4178553  60.1864913   5.2331673  49.1648553  61.3354913   5.1951673
  49.0528553  60.5834913   5.0031673  52.0648553  62.7934913  16.4611673
  52.0128553  62.4524913  15.6601673  52.8018553  63.2604913  16.4391673
  52.1658553  62.8124913  16.3391673  51.6028553  66.4694913  12.6671673
  52.2308553  65.9204913  12.4111673  51.5418553  67.0344913  12.0051673
  51.6868553  66.4724913  12.5311673  40.7368553  67.7004913   9.9631673
  40.4388553  68.2924913  10.5301673  40.7918553  68.1424913   9.2141673
  40.7008553  67.8534913   9.9361673  38.7158553  66.6504913  13.3611673
  37.9098553  66.3604913  13.5281673  38.6268553  67.5184913  13.3671673
  38.5838553  66.7354913  13.3861673  48.0748553  56.8394913  12.3761673
  48.8188553  57.2914913  12.3131673  47.5088553  57.3094913  11.9071673
  48.1018553  56.9764913  12.2981673  43.2528553  64.1234913   9.4541673
  43.7288553  64.4974913  10.0821673  42.4298553  64.2574913   9.7131673
  43.2018553  64.1984913   9.5851673  39.9628553  59.7264913  12.1951673
  40.1238553  58.9824913  12.6221673  39.9178553  59.4774913  11.3601673
  39.9798553  59.5794913  12.1351673  49.3598553  54.8194913  10.0461673
  49.0798553  55.6444913  10.0021673  50.0758553  54.8724913  10.5421673
  49.4248553  54.9494913  10.1131673  41.7148553  55.5344913  12.0751673
  42.4198553  55.8544913  11.6731673  41.9558553  54.7274913  12.3021673
  41.8538553  55.4624913  12.0491673  40.6998553  69.7444913   8.0711673
  40.0758553  70.3264913   7.8891673  40.9478553  69.4584913   7.2851673
  40.6438553  69.7884913   7.9281673  45.0088553  66.3784913  15.0601673
  45.7658553  66.6644913  14.7341673  44.4618553  66.4304913  14.3821673
  45.0398553  66.4284913  14.9111673  48.9178553  68.9284913  13.5641673
  49.2638553  69.1984913  14.3181673  49.2118553  69.5104913  12.9841673
  49.0128553  69.0544913  13.5901673  38.2238553  60.5874913   8.1361673
  38.6638553  60.4844913   7.3901673  38.7688553  60.2744913   8.7411673
  38.3688553  60.5264913   8.1151673  46.2398553  59.6894913  13.7281673
  45.5918553  60.1594913  14.0761673  46.8048553  59.6004913  14.3871673
  46.2278553  59.7454913  13.8771673  45.9278553  61.2264913  10.0261673
  46.2298553  61.6464913  10.7291673  45.9638553  60.3864913  10.2581673
  45.9778553  61.1644913  10.1641673  48.4758553  60.6734913   2.2781673
  48.6828553  60.4724913   3.1021673  49.2318553  60.9414913   1.9361673
  48.6178553  60.6834913   2.3491673  41.7708553  55.5724913   8.1831673
  40.9448553  55.4234913   8.4201673  41.7308553  55.6074913   7.3121673
  41.6428553  55.5554913   8.0891673  49.4978553  56.7564913   3.7521673
  48.7838553  56.2854913   3.9231673  49.3358553  57.0974913   2.9661673
  49.3688553  56.7374913   3.6611673  49.9408553  64.7004913   2.1321673
  50.4168553  63.9714913   2.0841673  49.1198553  64.4144913   2.0561673
  49.8898553  64.5504913   2.1131673  43.4118553  66.6124913  12.9711673
  42.6168553  66.5484913  13.3221673  43.4828553  67.4594913  12.7761673
  43.3048553  66.7274913  12.9941673  34.3358553  55.9704913  14.2181673
  34.1958553  56.7654913  13.8871673  33.5498553  55.7274913  14.5071673
  34.1988553  56.0524913  14.2121673  46.1568553  65.8674913   4.4871673
  46.2328553  66.2084913   5.2861673  46.3258553  65.0204913   4.6081673
  46.1928553  65.7924913   4.6231673  43.6788553  65.1414913   4.0521673
  43.3808553  64.8264913   4.8091673  44.3738553  65.6144913   4.2871673
  43.7378553  65.1644913   4.1991673  43.9008553  69.2594913  12.0791673
  44.5878553  69.1454913  12.6041673  44.0348553  70.0504913  11.7351673
  44.0218553  69.3594913  12.1061673  52.0768553  61.8684913  13.8901673
  51.2218553  61.7464913  14.0161673  52.2298553  61.4734913  13.1271673
  51.9728553  61.7914913  13.7961673  46.5898553  62.5334913  12.4661673
  46.3348553  61.8144913  12.8881673  47.4108553  62.6494913  12.7361673
  46.6738553  62.4444913  12.5681673  44.5238553  63.7234913  15.6531673
  44.8468553  64.4094913  15.2211673  43.8198553  64.0464913  16.0551673
  44.4668553  63.8724913  15.6481673  44.3088553  67.1874913   9.5121673
  43.6148553  67.5894913   9.8551673  44.9858553  67.6204913   9.8511673
  44.3058553  67.3104913   9.6131673  49.6858553  69.7804913  16.0921673
  50.4618553  69.3904913  16.1751673  49.2168553  69.4444913  16.7471673
  49.7308553  69.6734913  16.2011673  37.3768553  60.7254913  11.8591673
  37.7518553  61.3444913  11.3721673  38.0508553  60.2514913  12.1441673
  37.5318553  60.7474913  11.8291673  35.1518553  59.1734913  11.1341673
  35.2288553  59.0044913  10.2811673  35.8978553  59.5794913  11.3311673
  35.2728553  59.2084913  11.0371673  37.7058553  56.5834913  13.5451673
  37.6248553  55.7394913  13.7511673  37.3918553  56.6274913  12.7321673
  37.6478553  56.4654913  13.4551673  44.6308553  68.7784913   2.6811673
  44.4258553  69.6114913   2.5221673  43.8558553  68.3964913   2.8031673
  44.4858553  68.8454913   2.6761673  49.8128553  61.9594913  10.9301673
  49.8108553  61.0964913  11.0541673  49.8798553  62.2834913  11.7371673
  49.8228553  61.8794913  11.0671673  34.5488553  64.3994913  11.3581673
  34.8688553  64.6184913  10.5771673  34.4488553  63.5344913  11.3031673
  34.5808553  64.3044913  11.2351673  45.6918553  56.7594913  14.7121673
  45.7838553  57.4714913  15.2061673  45.0548553  56.3144913  15.1091673
  45.6108553  56.7984913  14.8441673  44.6858553  56.9494913   5.5661673
  43.9858553  57.4674913   5.5101673  44.7238553  56.5694913   4.7821673
  44.5878553  56.9704913   5.4421673  48.2838553  57.4654913   8.3661673
  49.1388553  57.5644913   8.5111673  47.9148553  58.0184913   8.9311673
  48.3558553  57.5624913   8.4711673  39.3118553  63.6914913  12.7431673
  38.9158553  64.4654913  12.8181673  38.9058553  63.3184913  12.0671673
  39.1938553  63.7504913  12.6541673  48.5878553  62.7454913   6.8571673
  49.2538553  63.2864913   7.0171673  48.2428553  63.0564913   6.1181673
  48.6348553  62.8714913   6.7721673  39.7408553  56.6684913  10.1931673
  38.8768553  56.7524913  10.2731673  39.9608553  56.1544913  10.8621673
  39.6458553  56.6054913  10.3041673  51.7588553  55.3034913  11.5221673
  51.7068553  55.2594913  12.3921673  52.4458553  54.8004913  11.3321673
  51.8528553  55.2234913  11.6221673  43.8438553  57.4164913   8.5671673
  43.1068553  56.9624913   8.6801673  44.4148553  57.0144913   9.0901673
  43.8188553  57.2894913   8.6611673  46.5758553  68.2644913  10.3551673
  46.7818553  68.5654913  11.1471673  46.5148553  68.9864913   9.8701673
  46.5968553  68.4154913  10.4001673  41.3468553  61.7454913  13.7711673
  41.0248553  61.1694913  13.2011673  40.9878553  62.5004913  13.5251673
  41.2468553  61.7714913  13.6511673  51.3878553  66.9034913   9.8131673
  51.3558553  66.0414913   9.6781673  50.6948553  67.2054913   9.3791673
  51.2808553  66.8204913   9.7291673  49.4928553  70.1634913   8.6101673
  50.0198553  70.0804913   7.9191673  49.1018553  69.3854913   8.6641673
  49.5128553  70.0364913   8.5161673  36.9608553  56.7514913  10.8411673
  36.6178553  55.9844913  10.6071673  36.2658553  57.2754913  10.9051673
  36.8078553  56.7154913  10.8161673  46.0068553  55.6074913   7.8181673
  46.6768553  56.1514913   7.9451673  45.5038553  56.0314913   7.2451673
  46.0318553  55.7504913   7.7521673  45.3658553  61.4154913   5.3111673
  45.9168553  60.8084913   5.6111673  44.9408553  61.6784913   6.0261673
  45.3848553  61.3644913   5.4601673  35.6138553  60.0654913   4.7971673
  35.2458553  60.3674913   5.5281673  36.1478553  59.4364913   5.0811673
  35.6378553  60.0174913   4.9471673  35.3018553  68.4734913  12.3081673
  34.7278553  68.8894913  12.8171673  36.0348553  68.9384913  12.4031673
  35.3258553  68.6034913  12.3971673  47.3358553  63.2464913   1.8731673
  47.4038553  62.3964913   2.0541673  46.5128553  63.3324913   1.5951673
  47.2238553  63.1334913   1.8591673  50.6098553  64.6194913  15.0241673
  51.2438553  64.4494913  15.5981673  51.0268553  65.0224913  14.3721673
  50.7648553  64.6544913  15.0131673  51.2348553  59.1834913  15.7621673
  51.0388553  59.8274913  16.3171673  50.5128553  58.6934913  15.7541673
  51.0998553  59.2064913  15.8431673  51.1338553  60.1244913   8.7331673
  50.3008553  60.3744913   8.6611673  51.0778553  59.2844913   8.9621673
  51.0028553  60.0374913   8.7561673  40.3938553  57.1124913  13.9271673
  40.6278553  56.5364913  13.3141673  39.5518553  56.9314913  14.0681673
  40.3038553  57.0004913  13.8571673  48.0208553  64.7304913  16.3791673
  48.8918553  64.6944913  16.3431673  47.8018553  65.1504913  15.6471673
  48.1178553  64.7864913  16.2661673  44.7848553  36.8373833  79.3131313
  44.5398553  37.3253833  78.6331313  45.6478553  36.7643833  79.2131313
  44.8758553  36.8983833  79.1981313  44.5938553  43.7533833  83.9841313
  44.0698553  44.3493833  84.3471313  44.9908553  43.3853833  84.6681313
  44.5748553  43.7873833  84.1391313  34.4628553  47.8933833  79.4401313
  34.0218553  48.0113833  80.1831313  34.1798553  47.1183833  79.1551313
  34.3558553  47.7963833  79.5081313  50.7378553  51.1943833  76.9551313
  51.4388553  50.6753833  76.9511313  50.1508553  50.7493833  76.4861313
  50.7548553  51.0513833  76.8851313  34.2058553  41.6853833  75.9471313
  33.4278553  41.8473833  75.5871313  34.2448553  40.8143833  75.9691313
  34.0968553  41.5803833  75.8971313  37.3448553  46.9483833  74.6191313
  36.9528553  46.5773833  73.9331313  37.2648553  46.3503833  75.2481313
  37.2748553  46.8053833  74.6101313  47.2648553  44.8203833  80.6601313
  47.3448553  44.8243833  79.7911313  46.6808553  44.1883833  80.8091313
  47.1898553  44.7273833  80.5541313  36.9718553  48.5893833  78.5191313
  37.5798553  48.4193833  79.1221313  36.2208553  48.4493833  78.9401313
  36.9508553  48.5433833  78.6701313  41.2538553  37.9243833  78.4681313
  41.1838553  38.6013833  77.9221313  41.9948553  37.5363833  78.2191313
  41.3528553  37.9673833  78.3501313  35.8628553  51.6803833  74.5961313
  36.3298553  51.7643833  73.8641313  36.3178553  51.1023833  75.0651313
  35.9988553  51.6073833  74.5571313  34.4028553  50.6283833  85.6951313
  34.5318553  50.3483833  86.5111313  33.7928553  50.0873833  85.3861313
  34.3318553  50.5073833  85.7701313  35.8488553  45.1493833  79.8971313
  35.3868553  44.7573833  79.2701313  36.5488553  44.6363833  79.9891313
  35.8838553  45.0163833  79.8181313  40.3568553  40.7593833  85.2441313
  41.0348553  40.7773833  84.6951313  40.3118553  39.9233833  85.4891313
  40.4498553  40.6383833  85.1991313  40.9588553  51.3453833  88.0251313
  41.0968553  52.1053833  87.6181313  41.7498553  50.9803833  88.0521313
  41.0958553  51.4043833  87.9691313  37.8498553  43.2493833  79.9201313
  38.6668553  43.0623833  80.1631313  37.3728553  42.6353833  80.3161313
  37.8998553  43.1313833  80.0151313  42.0538553  49.2303833  82.5301313
  42.4018553  48.4313833  82.5601313  42.7188553  49.7343833  82.2751313
  42.2038553  49.1863833  82.4971313  42.1108553  48.6793833  78.7411313
  42.4418553  48.0353833  79.2271313  42.3508553  48.4683833  77.9301313
  42.1948553  48.5533833  78.6931313  38.4468553  38.3433833  79.1861313
  38.1508553  38.8443833  78.5361313  39.3138553  38.4213833  79.1291313
  38.5308553  38.4293833  79.0821313  41.4258553  37.4853833  81.4091313
  41.4988553  38.3453833  81.5381313  41.3878553  37.4103833  80.5411313
  41.4308553  37.6013833  81.3001313  46.0988553  40.4113833  73.7081313
  45.6488553  41.0923833  74.0151313  46.2128553  39.9073833  74.4111313
  46.0498553  40.4373833  73.8571313  34.3048553  42.9103833  82.9101313
  34.0488553  43.7413833  82.8351313  33.6408553  42.5273833  83.3271313
  34.1688553  42.9763833  82.9611313  34.2148553  52.6203833  80.8101313
  33.6228553  53.1783833  80.4971313  34.6408553  52.3513833  80.0981313
  34.1908553  52.6623833  80.6591313  40.0548553  50.4643833  78.2901313
  39.4758553  50.1893833  78.8821313  40.6788553  49.8553833  78.3151313
  40.0618553  50.3343833  78.3811313  46.1978553  52.7523833  75.8121313
  46.9248553  53.2243833  75.9141313  46.4268553  51.9583833  76.0921313
  46.3398553  52.7053833  75.8691313  44.3658553  53.1443833  77.8021313
  44.5798553  53.6713833  78.4641313  45.1328553  52.9703833  77.4231313
  44.5108553  53.1963833  77.8441313  37.3338553  37.7273833  83.4011313
  36.8128553  37.0993833  83.0931313  37.9248553  37.2903833  83.8721313
  37.3448553  37.5693833  83.4251313  35.7598553  51.2903833  78.7411313
  36.4158553  50.7153833  78.7561313  36.1488553  52.0393833  78.5201313
  35.9148553  51.3153833  78.7111313  51.4928553  40.3843833  80.0031313
  51.1468553  41.0623833  80.4291313  50.8568553  39.7863833  80.0191313
  51.3478553  40.3963833  80.0681313  46.8048553  53.1543833  86.1071313
  47.5488553  53.6103833  86.0971313  46.6838553  52.9403833  85.2701313
  46.8968553  53.1903833  85.9821313  36.5778553  49.7773833  82.2411313
  37.0008553  49.4213833  81.5671313  36.9018553  49.3553833  82.9331313
  36.6878553  49.6623833  82.2441313  39.8088553  52.6293833  81.5371313
  40.6528553  52.7333833  81.3421313  39.5118553  53.4473833  81.6051313
  39.8898553  52.7653833  81.5181313  43.6158553  42.0263833  79.6241313
  43.9028553  41.7943833  78.8341313  44.3478553  42.1053833  80.0931313
  43.7658553  42.0033833  79.5771313  44.3378553  42.3653833  74.7451313
  44.6188553  43.1533833  74.9941313  43.5618553  42.5303833  74.3821313
  44.2648553  42.5063833  74.7281313  48.3788553  54.3393833  76.2121313
  49.0438553  54.1913833  75.6671313  48.7388553  54.2563833  77.0021313
  48.5308553  54.3053833  76.2481313  38.8068553  53.8483833  87.2771313
  39.0988553  53.7813833  88.0971313  38.1808553  53.2433833  87.2321313
  38.7578553  53.7493833  87.3921313  51.1678553  38.7073833  85.3721313
  51.9248553  38.7793833  84.9441313  51.2308553  37.9343833  85.7711313
  51.2888553  38.6043833  85.3671313  43.1968553  50.5363833  74.5611313
  43.0158553  51.0813833  75.2181313  43.9628553  50.8263833  74.2601313
  43.2828553  50.6603833  74.6141313  46.7038553  38.4323833  75.6151313
  47.2438553  37.7503833  75.6911313  46.7658553  38.8303833  76.3891313
  46.7928553  38.3903833  75.7411313  34.6578553  39.6003833  78.1841313
  34.5438553  38.7363833  78.2151313  34.1828553  39.8943833  78.8541313
  34.5708553  39.5163833  78.2871313  36.7998553  52.0103833  86.3991313
  36.1018553  51.5023833  86.5251313  37.0598553  51.8053833  85.5911313
  36.7348553  51.9053833  86.2981313  43.9618553  40.8083833  76.9291313
  43.4538553  40.1463833  76.6751313  44.0138553  41.3123833  76.2191313
  43.8948553  40.7853833  76.7871313  44.5108553  53.5033833  87.3091313
  45.2788553  53.4233833  86.9031313  43.9278553  53.3823833  86.6711313
  44.5378553  53.4733833  87.1551313  43.9618553  37.7493833  76.8201313
  43.5068553  37.3473833  76.1941313  44.7348553  37.9043833  76.4451313
  44.0088553  37.7133833  76.6721313  50.7878553  54.1063833  80.2101313
  50.3328553  54.8233833  80.4111313  50.1738553  53.5353833  79.9681313
  50.6298553  54.1283833  80.2041313  42.5598553  40.1163833  81.3421313
  42.6338553  40.6843833  80.6841313  42.6808553  40.6083833  82.0521313
  42.5878553  40.2733833  81.3501313  47.7848553  49.9513833  79.7541313
  48.4858553  49.4693833  79.9431313  47.1248553  49.3823833  79.7991313
  47.7908553  49.7963833  79.7881313  37.1678553  35.9393833  79.6901313
  37.7038553  36.6273833  79.6801313  37.1708553  35.6653833  78.8621313
  37.2468553  36.0003833  79.5661313  40.1238553  46.3723833  83.7151313
  40.2958553  46.1623833  84.5441313  39.4688553  45.8383833  83.4991313
  40.0528553  46.2623833  83.8061313  46.3518553  40.2863833  87.2301313
  46.2568553  40.6053833  88.0361313  45.7588553  39.6473833  87.1921313
  46.2498553  40.2383833  87.3441313  40.8738553  46.3103833  86.3051313
  40.9268553  47.1573833  86.5071313  40.5888553  45.9403833  87.0421313
  40.8398553  46.3803833  86.4431313  47.0508553  47.0053833  85.4351313
  46.5368553  46.5933833  86.0061313  46.9248553  47.8493833  85.6161313
  46.9568553  47.0693833  85.5461313  47.6078553  36.2303833  80.0661313
  47.6568553  35.9123833  80.8771313  47.9308553  35.5863833  79.5731313
  47.6628553  36.0883833  80.1131313  37.6158553  39.7493833  81.3441313
  37.8878553  39.3193833  80.6361313  37.4398553  39.1133833  81.9151313
  37.6298553  39.5923833  81.3241313  50.3038553  47.4443833  75.5621313
  50.4228553  47.1573833  76.3771313  51.1108553  47.4653833  75.2321313
  50.4398553  47.4053833  75.6341313  37.4398553  47.1763833  80.8931313
  38.2908553  47.0963833  80.7201313  37.0828553  46.4943833  80.4811313
  37.5128553  47.0633833  80.8061313  36.2068553  53.9013833  82.1301313
  35.5338553  53.4033833  81.8851313  36.6098553  54.0863833  81.3791313
  36.1668553  53.8553833  81.9831313  35.7568553  40.8513833  84.4261313
  36.5998553  41.0713833  84.3831313  35.3678553  41.4243833  83.8951313
  35.8238553  40.9683833  84.3411313  48.1988553  43.9813833  75.1471313
  47.9788553  44.7123833  74.7251313  47.7508553  44.0323833  75.8941313
  48.0998553  44.0963833  75.1951313  39.8078553  47.1833833  79.1281313
  40.5208553  47.6783833  79.2181313  40.0298553  46.6163833  78.5021313
  39.9458553  47.1723833  79.0491313  52.3858553  38.8423833  74.6001313
  51.7238553  38.2743833  74.6231313  52.1928553  39.3543833  73.9201313
  52.2598553  38.8343833  74.5031313  33.9638553  48.8263833  82.4481313
  33.2968553  49.3143833  82.7241313  34.6438553  49.3713833  82.4771313
  33.9658553  48.9783833  82.4931313  52.7088553  43.2203833  87.1561313
  52.9238553  42.4203833  86.8801313  51.8588553  43.2803833  86.9671313
  52.6148553  43.1113833  87.0871313  34.0298553  45.5103833  77.5511313
  33.8448553  44.6713833  77.7031313  34.6888553  45.4743833  76.9811313
  34.0998553  45.3813833  77.4891313  50.3878553  38.4003833  76.8791313
  51.1338553  37.9933833  77.0781313  50.6508553  39.1153833  76.4541313
  50.5368553  38.4463833  76.8461313  44.3308553  50.8863833  81.4551313
  43.8078553  51.5203833  81.1621313  44.6408553  50.5223833  80.7261313
  44.2988553  50.9263833  81.3041313  34.2018553  49.6743833  77.1261313
  34.7538553  50.2433833  77.4901313  33.9698553  49.1593833  77.7911313
  34.2488553  49.6823833  77.2781313  38.4058553  48.6743833  84.2151313
  38.8728553  48.9633833  84.8931313  38.9778553  48.1963833  83.7611313
  38.5598553  48.6463833  84.2481313  46.8418553  40.6883833  81.9521313
  47.1858553  40.8403833  82.7391313  46.3888553  39.9503833  82.0651313
  46.8258553  40.6013833  82.0851313  34.0318553  48.1233833  74.7541313
  34.7878553  47.6913833  74.8121313  34.0468553  48.6553833  75.4451313
  34.1458553  48.1383833  74.8651313  34.9718553  46.3443833  82.7591313
  35.4028553  46.2153833  82.0121313  34.7668553  47.1923833  82.7331313
  35.0048553  46.4503833  82.6451313  41.3178553  39.9083833  76.4091313
  41.3158553  39.7913833  75.5441313  41.1368553  40.7563833  76.5011313
  41.2908553  40.0163833  76.2951313  50.3718553  52.3353833  87.9061313
  49.7008553  52.8493833  88.1241313  50.4348553  52.4353833  87.0421313
  50.2818553  52.4263833  87.8111313  39.0558553  49.8603833  81.0411313
  39.1818553  50.7033833  81.2281313  39.7238553  49.4613833  81.4371313
  39.1738553  49.9263833  81.1271313  37.6708553  42.7403833  76.0431313
  37.5428553  42.2923833  76.7811313  37.0888553  42.3983833  75.4911313
  37.5658553  42.6233833  76.0711313  37.8378553  44.5703833  82.6421313
  37.0568553  44.5113833  82.2591313  37.9098553  43.8183833  83.0791313
  37.7328553  44.4513833  82.6501313  38.2678553  44.3073833  86.1101313
  38.2928553  43.6323833  85.5591313  37.6218553  44.8033833  85.7981313
  38.1768553  44.2803833  85.9831313  48.1628553  42.0203833  84.5061313
  47.5008553  42.3483833  84.9691313  48.3498553  42.6543833  83.9371313
  48.0928553  42.1623833  84.4901313  42.3678553  53.0843833  85.5021313
  42.0908553  52.4433833  84.9791313  42.1598553  53.8103833  85.0641313
  42.2968553  53.0973833  85.3601313  44.8078553  37.9263833  87.9351313
  44.9568553  37.1013833  87.6921313  45.1868553  37.9813833  88.7191313
  44.8858553  37.8123833  88.0151313  46.3558553  39.9893833  78.0171313
  46.8458553  40.7063833  77.9401313  45.5658553  40.2503833  77.7541313
  46.3118553  40.1333833  77.9671313  42.9378553  41.4593833  83.7421313
  43.4178553  42.1583833  83.9501313  43.3108553  40.8123833  84.1931313
  43.0638553  41.4673833  83.8391313  45.1268553  44.6283833  76.0161313
  45.1188553  45.3503833  75.5261313  44.4878553  44.7633833  76.5931313
  45.0318553  44.7553833  76.0291313  50.0988553  48.4983833  79.9971313
  50.4548553  48.1483833  80.7121313  50.0908553  47.8373833  79.4271313
  50.1508553  48.3483833  80.0181313  46.1438553  51.5643833  83.8411313
  45.5408553  51.2683833  83.2841313  46.6888553  52.0163833  83.3321313
  46.1348553  51.5873833  83.6831313  46.1568553  48.4153833  83.2411313
  45.3598553  48.6393833  83.5151313  46.4148553  47.8213833  83.8261313
  46.0768553  48.3603833  83.3681313  40.0488553  53.2273833  77.6891313
  39.9018553  52.4513833  78.0601313  40.7378553  53.0803833  77.1741313
  40.1288553  53.0903833  77.6681313  39.7198553  36.9703833  75.6771313
  39.8168553  36.8633833  76.5381313  39.0118553  37.4763833  75.6121313
  39.6298553  37.0293833  75.7951313  42.3408553  52.7433833  76.0911313
  42.9628553  52.9063833  76.6811313  42.3768553  53.4343833  75.5591313
  42.4378553  52.8693833  76.1001313  49.4168553  46.4133833  88.0871313
  49.4718553  46.5383833  87.2251313  50.1698553  46.7333833  88.3891313
  49.5358553  46.4783833  88.0041313  36.8418553  45.2773833  76.9201313
  37.1658553  44.4983833  76.6981313  37.4878553  45.6453833  77.3751313
  36.9848553  45.2163833  76.9541313  45.1478553  46.2193833  87.6871313
  44.9928553  46.8293833  88.2911313  45.6818553  45.6613833  88.0931313
  45.2038553  46.2273833  87.8361313  33.8388553  36.9383833  77.8881313
  33.9678553  36.2303833  77.3961313  33.4718553  36.6203833  78.6131313
  33.8038553  36.7863833  77.9231313  43.5318553  44.6193833  78.3451313
  43.5908553  45.2693833  78.9241313  43.3428553  43.9233833  78.8361313
  43.5128553  44.6123833  78.5031313  48.7578553  48.9483833  84.2141313
  48.2788553  49.2463833  83.5481313  48.4018553  48.1723833  84.3921313
  48.6348553  48.8773833  84.1421313  38.0278553  39.1363833  74.8571313
  37.5168553  39.1893833  74.1511313  38.8118553  39.3763833  74.5611313
  38.0678553  39.1793833  74.7091313  42.7548553  46.6663833  82.7761313
  41.9078553  46.4723833  82.8571313  43.0788553  46.5013833  83.5691313
  42.6768553  46.6133833  82.9051313  39.5068553  53.3963833  73.6621313
  39.9458553  52.6993833  73.9501313  39.7138553  54.0203833  74.2351313
  39.6028553  53.3853833  73.7891313  36.6028553  46.3593833  85.0921313
  37.3248553  46.8473833  85.0551313  36.3328553  46.3293833  84.2631313
  36.6698553  46.4273833  84.9641313  39.8328553  41.5303833  81.8271313
  40.6788553  41.3403833  81.9251313  39.4628553  40.7533833  81.6891313
  39.9028553  41.3873833  81.8211313  52.4498553  53.1143833  76.1541313
  53.1438553  52.6473833  75.9061313  51.9108553  52.5163833  76.4911313
  52.4728553  52.9563833  76.1671313  34.6538553  42.8683833  78.4821313
  35.1428553  42.5763833  79.1431313  34.7828553  42.2753833  77.8551313
  34.7448553  42.7373833  78.4871313  49.6888553  45.8903833  85.3331313
  49.6818553  45.1143833  85.7311313  48.8478553  46.1243833  85.3261313
  49.5638553  45.8103833  85.3911313  39.1788553  44.3023833  73.9681313
  38.5688553  43.8973833  74.4421313  38.7928553  44.4203833  73.1951313
  39.0318553  44.2593833  73.9241313  50.9448553  45.9613833  82.7701313
  50.6588553  46.3623833  83.4901313  51.8048553  45.8993833  82.8971313
  51.0298553  46.0113833  82.8951313  40.6338553  42.7633833  76.6781313
  40.9058553  43.5893833  76.7451313  39.7708553  42.8383833  76.5821313
  40.5468553  42.8963833  76.6731313  34.1138553  38.7333833  83.2141313
  34.1578553  39.0773833  82.4131313  34.8688553  38.9703833  83.5811313
  34.2318553  38.8193833  83.1501313  52.0758553  51.5943833  83.2991313
  52.3658553  51.8513833  82.5181313  52.7708553  51.6903833  83.8181313
  52.2218553  51.6463833  83.2601313  48.6808553  50.1973833  75.2811313
  49.0148553  49.3913833  75.3161313  47.9258553  50.1253833  75.7111313
  48.6188553  50.0673833  75.3501313  49.1628553  42.0313833  80.9401313
  48.4178553  41.7083833  81.2581313  49.1648553  42.8573833  81.2201313
  49.0528553  42.1053833  81.0281313  51.6028553  47.9913833  88.6921313
  52.2308553  47.4423833  88.4361313  51.5418553  48.5563833  88.0301313
  51.6868553  47.9943833  88.5561313  46.0548553  48.0723833  74.6841313
  46.7388553  47.5583833  74.5151313  45.6378553  48.1183833  73.9191313
  46.0938553  48.0033833  74.5461313  40.7368553  49.2223833  85.9881313
  40.4388553  49.8143833  86.5551313  40.7918553  49.6643833  85.2391313
  40.7008553  49.3753833  85.9611313  48.0748553  38.3613833  88.4011313
  48.8188553  38.8133833  88.3381313  47.5088553  38.8313833  87.9321313
  48.1018553  38.4983833  88.3231313  43.2528553  45.6453833  85.4791313
  43.7288553  46.0193833  86.1071313  42.4298553  45.7793833  85.7381313
  43.2018553  45.7203833  85.6101313  39.9628553  41.2483833  88.2201313
  40.1238553  40.5043833  88.6471313  39.9178553  40.9993833  87.3851313
  39.9798553  41.1013833  88.1601313  42.5168553  53.0383833  80.7071313
  43.0628553  53.7173833  80.7611313  42.1668553  53.1203833  79.9121313
  42.5458553  53.1513833  80.5971313  49.3598553  36.3413833  86.0711313
  49.0798553  37.1663833  86.0271313  50.0758553  36.3943833  86.5671313
  49.4248553  36.4713833  86.1381313  41.7148553  37.0563833  88.1001313
  42.4198553  37.3763833  87.6981313  41.9558553  36.2493833  88.3271313
  41.8538553  36.9843833  88.0741313  40.6998553  51.2663833  84.0961313
  40.0758553  51.8483833  83.9141313  40.9478553  50.9803833  83.3101313
  40.6438553  51.3103833  83.9531313  50.7808553  42.5963833  74.9281313
  51.1588553  43.2733833  74.5281313  49.9388553  42.8203833  74.9591313
  50.7118553  42.7293833  74.8731313  42.2938553  46.0423833  74.0111313
  41.4888553  45.8653833  73.7261313  42.2608553  46.8933833  74.2031313
  42.1698553  46.1413833  73.9981313  38.2238553  42.1093833  84.1611313
  38.6638553  42.0063833  83.4151313  38.7688553  41.7963833  84.7661313
  38.3688553  42.0483833  84.1401313  45.9278553  42.7483833  86.0511313
  46.2298553  43.1683833  86.7541313  45.9638553  41.9083833  86.2831313
  45.9778553  42.6863833  86.1891313  48.4758553  42.1953833  78.3031313
  48.6828553  41.9943833  79.1271313  49.2318553  42.4633833  77.9611313
  48.6178553  42.2053833  78.3741313  41.7708553  37.0943833  84.2081313
  40.9448553  36.9453833  84.4451313  41.7308553  37.1293833  83.3371313
  41.6428553  37.0773833  84.1141313  49.4978553  38.2783833  79.7771313
  48.7838553  37.8073833  79.9481313  49.3358553  38.6193833  78.9911313
  49.3688553  38.2593833  79.6861313  49.9408553  46.2223833  78.1571313
  50.4168553  45.4933833  78.1091313  49.1198553  45.9363833  78.0811313
  49.8898553  46.0723833  78.1381313  39.2418553  54.3413833  84.3131313
  39.2528553  54.4003833  85.1831313  38.8168553  53.5943833  84.1631313
  39.1808553  54.2393833  84.4191313  37.3998553  40.2363833  77.4681313
  37.5258553  39.9073833  76.6701313  36.5878553  39.9873833  77.6671313
  37.2988553  40.1513833  77.3801313  46.1568553  47.3893833  80.5121313
  46.2328553  47.7303833  81.3111313  46.3258553  46.5423833  80.6331313
  46.1928553  47.3143833  80.6481313  43.6788553  46.6633833  80.0771313
  43.3808553  46.3483833  80.8341313  44.3738553  47.1363833  80.3121313
  43.7378553  46.6863833  80.2241313  43.9008553  50.7813833  88.1041313
  44.5878553  50.6673833  88.6291313  44.0348553  51.5723833  87.7601313
  44.0218553  50.8813833  88.1311313  46.5898553  44.0553833  88.4911313
  46.3348553  43.3363833  88.9131313  47.4108553  44.1713833  88.7611313
  46.6738553  43.9663833  88.5931313  47.6078553  53.6193833  82.6071313
  47.1568553  54.2623833  82.9861313  48.3158553  53.5403833  83.1121313
  47.6458553  53.7023833  82.7381313  44.3088553  48.7093833  85.5371313
  43.6148553  49.1113833  85.8801313  44.9858553  49.1423833  85.8761313
  44.3058553  48.8323833  85.6381313  37.3768553  42.2473833  87.8841313
  37.7518553  42.8663833  87.3971313  38.0508553  41.7733833  88.1691313
  37.5318553  42.2693833  87.8541313  35.1518553  40.6953833  87.1591313
  35.2288553  40.5263833  86.3061313  35.8978553  41.1013833  87.3561313
  35.2728553  40.7303833  87.0621313  50.7108553  43.3353833  77.5991313
  50.8138553  43.2773833  76.7351313  51.4518553  43.0033833  77.9171313
  50.8358553  43.2783833  77.5181313  44.6308553  50.3003833  78.7061313
  44.4258553  51.1333833  78.5471313  43.8558553  49.9183833  78.8281313
  44.4858553  50.3673833  78.7011313  49.8128553  43.4813833  86.9551313
  49.8108553  42.6183833  87.0791313  49.8798553  43.8053833  87.7621313
  49.8228553  43.4013833  87.0921313  34.5488553  45.9213833  87.3831313
  34.8688553  46.1403833  86.6021313  34.4488553  45.0563833  87.3281313
  34.5808553  45.8263833  87.2601313  36.0048553  41.8573833  74.0011313
  35.3328553  41.8713833  74.5571313  36.0998553  41.0093833  73.8171313
  35.9198553  41.7343833  74.0561313  44.6858553  38.4713833  81.5911313
  43.9858553  38.9893833  81.5351313  44.7238553  38.0913833  80.8071313
  44.5878553  38.4923833  81.4671313  39.9928553  50.5623833  75.1151313
  40.4338553  50.6423833  75.8631313  39.1878553  50.3463833  75.3731313
  39.9388553  50.5423833  75.2641313  48.2838553  38.9873833  84.3911313
  49.1388553  39.0863833  84.5361313  47.9148553  39.5403833  84.9561313
  48.3558553  39.0843833  84.4961313  39.3118553  45.2133833  88.7681313
  38.9158553  45.9873833  88.8431313  38.9058553  44.8403833  88.0921313
  39.1938553  45.2723833  88.6791313  48.5878553  44.2673833  82.8821313
  49.2538553  44.8083833  83.0421313  48.2428553  44.5783833  82.1431313
  48.6348553  44.3933833  82.7971313  48.9008553  52.3333833  78.6891313
  48.7268553  51.6793833  79.2391313  49.6138553  52.0623833  78.2661313
  48.9808553  52.1963833  78.7081313  37.3218553  49.6323833  75.7161313
  37.0778553  49.3253833  76.4961313  37.2888553  48.9293833  75.2001313
  37.2808553  49.4833833  75.7551313  40.1408553  47.8773833  74.4591313
  39.3228553  47.6093833  74.5991313  40.1128553  48.7293833  74.6441313
  40.0158553  47.9643833  74.5071313  39.7408553  38.1903833  86.2181313
  38.8768553  38.2743833  86.2981313  39.9608553  37.6763833  86.8871313
  39.6458553  38.1273833  86.3291313  51.7588553  36.8253833  87.5471313
  51.7068553  36.7813833  88.4171313  52.4458553  36.3223833  87.3571313
  51.8528553  36.7453833  87.6471313  43.8438553  38.9383833  84.5921313
  43.1068553  38.4843833  84.7051313  44.4148553  38.5363833  85.1151313
  43.8188553  38.8113833  84.6861313  46.5758553  49.7863833  86.3801313
  46.7818553  50.0873833  87.1721313  46.5148553  50.5083833  85.8951313
  46.5968553  49.9373833  86.4251313  42.1428553  36.5193833  74.4231313
  42.2208553  36.7663833  73.5901313  41.3998553  36.8963833  74.6811313
  42.0448553  36.6113833  74.3381313  51.3878553  48.4253833  85.8381313
  51.3558553  47.5633833  85.7031313  50.6948553  48.7273833  85.4041313
  51.2808553  48.3423833  85.7541313  49.4928553  51.6853833  84.6351313
  50.0198553  51.6023833  83.9441313  49.1018553  50.9073833  84.6891313
  49.5128553  51.5583833  84.5411313  36.9608553  38.2733833  86.8661313
  36.6178553  37.5063833  86.6321313  36.2658553  38.7973833  86.9301313
  36.8078553  38.2373833  86.8411313  46.0068553  37.1293833  83.8431313
  46.6768553  37.6733833  83.9701313  45.5038553  37.5533833  83.2701313
  46.0318553  37.2723833  83.7771313  45.3658553  42.9373833  81.3361313
  45.9168553  42.3303833  81.6361313  44.9408553  43.2003833  82.0511313
  45.3848553  42.8863833  81.4851313  35.6138553  41.5873833  80.8221313
  35.2458553  41.8893833  81.5531313  36.1478553  40.9583833  81.1061313
  35.6378553  41.5393833  80.9721313  35.3018553  49.9953833  88.3331313
  34.7278553  50.4113833  88.8421313  36.0348553  50.4603833  88.4281313
  35.3258553  50.1253833  88.4221313  47.3358553  44.7683833  77.8981313
  47.4038553  43.9183833  78.0791313  46.5128553  44.8543833  77.6201313
  47.2238553  44.6553833  77.8841313  37.0878553  53.2623833  77.1081313
  36.9428553  53.4183833  76.2621313  37.9538553  53.3413833  77.1861313
  37.1948553  53.2973833  76.9951313  41.2548553  45.6593833  76.8361313
  41.3548553  45.7983833  75.9811313  42.0728553  45.5993833  77.1321313
  41.3898553  45.6703833  76.7531313  50.4148553  53.7233833  74.3161313
  51.0518553  53.5893833  74.8971313  50.0738553  52.9293833  74.1991313
  50.4588553  53.5863833  74.3841313  46.4898553  49.9883833  76.6381313
  46.2388553  49.8603833  77.4641313  46.1728553  49.2933833  76.2171313
  46.4058553  49.8673833  76.6981313  51.1338553  41.6463833  84.7581313
  50.3008553  41.8963833  84.6861313  51.0778553  40.8063833  84.9871313
  51.0028553  41.5593833  84.7811313  37.7748553  52.0773833  83.5851313
  37.6958553  51.2673833  83.2691313  37.3308553  52.5643833  83.0131313
  37.6978553  52.0293833  83.4541313  43.3758553  48.1963833  76.0681313
  44.0928553  47.8493833  75.7121313  43.3418553  48.9963833  75.7201313
  43.4768553  48.2633833  75.9641313  35.3468553  54.3213833  87.1661313
  35.8398553  54.2653833  87.8841313  35.5348553  53.5883833  86.7311313
  35.4478553  54.2043833  87.2081313  44.7848553  36.8373833  60.3068903
  44.5398553  37.3253833  59.6268903  45.6478553  36.7643833  60.2068903
  44.8758553  36.8983833  60.1918903  44.5938553  43.7533833  64.9778903
  44.0698553  44.3493833  65.3408903  44.9908553  43.3853833  65.6618903
  44.5748553  43.7873833  65.1328903  34.4628553  47.8933833  60.4338903
  34.0218553  48.0113833  61.1768903  34.1798553  47.1183833  60.1488903
  34.3558553  47.7963833  60.5018903  50.7378553  51.1943833  57.9488903
  51.4388553  50.6753833  57.9448903  50.1508553  50.7493833  57.4798903
  50.7548553  51.0513833  57.8788903  34.2058553  41.6853833  56.9408903
  33.4278553  41.8473833  56.5808903  34.2448553  40.8143833  56.9628903
  34.0968553  41.5803833  56.8908903  37.3448553  46.9483833  55.6128903
  36.9528553  46.5773833  54.9268903  37.2648553  46.3503833  56.2418903
  37.2748553  46.8053833  55.6038903  47.2648553  44.8203833  61.6538903
  47.3448553  44.8243833  60.7848903  46.6808553  44.1883833  61.8028903
  47.1898553  44.7273833  61.5478903  36.9718553  48.5893833  59.5128903
  37.5798553  48.4193833  60.1158903  36.2208553  48.4493833  59.9338903
  36.9508553  48.5433833  59.6638903  41.2538553  37.9243833  59.4618903
  41.1838553  38.6013833  58.9158903  41.9948553  37.5363833  59.2128903
  41.3528553  37.9673833  59.3438903  35.8628553  51.6803833  55.5898903
  36.3298553  51.7643833  54.8578903  36.3178553  51.1023833  56.0588903
  35.9988553  51.6073833  55.5508903  34.4028553  50.6283833  66.6888903
  34.5318553  50.3483833  67.5048903  33.7928553  50.0873833  66.3798903
  34.3318553  50.5073833  66.7638903  40.9768553  48.1533833  71.7558903
  40.7408553  48.1503833  72.5958903  40.2288553  48.0053833  71.3318903
  40.8308553  48.1303833  71.8168903  35.8488553  45.1493833  60.8908903
  35.3868553  44.7573833  60.2638903  36.5488553  44.6363833  60.9828903
  35.8838553  45.0163833  60.8118903  40.3568553  40.7593833  66.2378903
  41.0348553  40.7773833  65.6888903  40.3118553  39.9233833  66.4828903
  40.4498553  40.6383833  66.1928903  40.9588553  51.3453833  69.0188903
  41.0968553  52.1053833  68.6118903  41.7498553  50.9803833  69.0458903
  41.0958553  51.4043833  68.9628903  37.8498553  43.2493833  60.9138903
  38.6668553  43.0623833  61.1568903  37.3728553  42.6353833  61.3098903
  37.8998553  43.1313833  61.0088903  42.0538553  49.2303833  63.5238903
  42.4018553  48.4313833  63.5538903  42.7188553  49.7343833  63.2688903
  42.2038553  49.1863833  63.4908903  42.1108553  48.6793833  59.7348903
  42.4418553  48.0353833  60.2208903  42.3508553  48.4683833  58.9238903
  42.1948553  48.5533833  59.6868903  44.0788553  42.8103833  71.0738903
  43.2308553  42.7113833  70.8958903  44.1078553  43.5553833  71.5278903
  43.9578553  42.9063833  71.1148903  48.6368553  35.7703833  70.1878903
  48.4788553  36.5393833  69.8058903  47.8648553  35.5503833  70.5318903
  48.4988553  35.8513833  70.1828903  46.0988553  40.4113833  54.7018903
  45.6488553  41.0923833  55.0088903  46.2128553  39.9073833  55.4048903
  46.0498553  40.4373833  54.8508903  34.3048553  42.9103833  63.9038903
  34.0488553  43.7413833  63.8288903  33.6408553  42.5273833  64.3208903
  34.1688553  42.9763833  63.9548903  34.2148553  52.6203833  61.8038903
  33.6228553  53.1783833  61.4908903  34.6408553  52.3513833  61.0918903
  34.1908553  52.6623833  61.6528903  40.0548553  50.4643833  59.2838903
  39.4758553  50.1893833  59.8758903  40.6788553  49.8553833  59.3088903
  40.0618553  50.3343833  59.3748903  46.1978553  52.7523833  56.8058903
  46.9248553  53.2243833  56.9078903  46.4268553  51.9583833  57.0858903
  46.3398553  52.7053833  56.8628903  44.3658553  53.1443833  58.7958903
  44.5798553  53.6713833  59.4578903  45.1328553  52.9703833  58.4168903
  44.5108553  53.1963833  58.8378903  40.6398553  39.8603833  73.6928903
  40.7568553  39.4063833  72.9568903  40.9278553  40.6583833  73.4898903
  40.6998553  39.9113833  73.5538903  35.7598553  51.2903833  59.7348903
  36.4158553  50.7153833  59.7498903  36.1488553  52.0393833  59.5138903
  35.9148553  51.3153833  59.7048903  51.4928553  40.3843833  60.9968903
  51.1468553  41.0623833  61.4228903  50.8568553  39.7863833  61.0128903
  51.3478553  40.3963833  61.0618903  46.8048553  53.1543833  67.1008903
  47.5488553  53.6103833  67.0908903  46.6838553  52.9403833  66.2638903
  46.8968553  53.1903833  66.9758903  36.3728553  39.4573833  72.6768903
  35.5948553  39.0673833  72.6048903  36.8638553  39.0453833  72.0858903
  36.3298553  39.3383833  72.5788903  36.5778553  49.7773833  63.2348903
  37.0008553  49.4213833  62.5608903  36.9018553  49.3553833  63.9268903
  36.6878553  49.6623833  63.2378903  39.8088553  52.6293833  62.5308903
  40.6528553  52.7333833  62.3358903  39.5118553  53.4473833  62.5988903
  39.8898553  52.7653833  62.5118903  43.0218553  37.1003833  71.8448903
  43.1998553  36.2913833  71.5698903  42.8788553  37.5413833  71.1058903
  43.0268553  37.0463833  71.6948903  43.6158553  42.0263833  60.6178903
  43.9028553  41.7943833  59.8278903  44.3478553  42.1053833  61.0868903
  43.7658553  42.0033833  60.5708903  44.3378553  42.3653833  55.7388903
  44.6188553  43.1533833  55.9878903  43.5618553  42.5303833  55.3758903
  44.2648553  42.5063833  55.7218903  48.3788553  54.3393833  57.2058903
  49.0438553  54.1913833  56.6608903  48.7388553  54.2563833  57.9958903
  48.5308553  54.3053833  57.2418903  38.8068553  53.8483833  68.2708903
  39.0988553  53.7813833  69.0908903  38.1808553  53.2433833  68.2258903
  38.7578553  53.7493833  68.3858903  51.1678553  38.7073833  66.3658903
  51.9248553  38.7793833  65.9378903  51.2308553  37.9343833  66.7648903
  51.2888553  38.6043833  66.3608903  33.7208553  40.0053833  70.2628903
  33.7168553  40.5923833  70.9088903  34.3148553  40.3173833  69.7058903
  33.8078553  40.1383833  70.2758903  46.0588553  50.3393833  70.8048903
  46.0248553  50.7213833  71.5888903  46.9128553  50.2973833  70.6338903
  46.1798553  50.3893833  70.8958903  43.1968553  50.5363833  55.5548903
  43.0158553  51.0813833  56.2118903  43.9628553  50.8263833  55.2538903
  43.2828553  50.6603833  55.6078903  46.7038553  38.4323833  56.6088903
  47.2438553  37.7503833  56.6848903  46.7658553  38.8303833  57.3828903
  46.7928553  38.3903833  56.7348903  36.7998553  52.0103833  67.3928903
  36.1018553  51.5023833  67.5188903  37.0598553  51.8053833  66.5848903
  36.7348553  51.9053833  67.2918903  43.9618553  40.8083833  57.9228903
  43.4538553  40.1463833  57.6688903  44.0138553  41.3123833  57.2128903
  43.8948553  40.7853833  57.7808903  44.5108553  53.5033833  68.3028903
  45.2788553  53.4233833  67.8968903  43.9278553  53.3823833  67.6648903
  44.5378553  53.4733833  68.1488903  43.9618553  37.7493833  57.8138903
  43.5068553  37.3473833  57.1878903  44.7348553  37.9043833  57.4388903
  44.0088553  37.7133833  57.6658903  50.7878553  54.1063833  61.2038903
  50.3328553  54.8233833  61.4048903  50.1738553  53.5353833  60.9618903
  50.6298553  54.1283833  61.1978903  42.5598553  40.1163833  62.3358903
  42.6338553  40.6843833  61.6778903  42.6808553  40.6083833  63.0458903
  42.5878553  40.2733833  62.3438903  47.7848553  49.9513833  60.7478903
  48.4858553  49.4693833  60.9368903  47.1248553  49.3823833  60.7928903
  47.7908553  49.7963833  60.7818903  38.1608553  50.8613833  69.9598903
  39.0018553  50.9243833  69.7378903  38.1238553  51.2583833  70.7358903
  38.2798553  50.9293833  70.0418903  40.1238553  46.3723833  64.7088903
  40.2958553  46.1623833  65.5378903  39.4688553  45.8383833  64.4928903
  40.0528553  46.2623833  64.7998903  46.3518553  40.2863833  68.2238903
  46.2568553  40.6053833  69.0298903  45.7588553  39.6473833  68.1858903
  46.2498553  40.2383833  68.3378903  40.8738553  46.3103833  67.2988903
  40.9268553  47.1573833  67.5008903  40.5888553  45.9403833  68.0358903
  40.8398553  46.3803833  67.4368903  47.0508553  47.0053833  66.4288903
  46.5368553  46.5933833  66.9998903  46.9248553  47.8493833  66.6098903
  46.9568553  47.0693833  66.5398903  47.6078553  36.2303833  61.0598903
  47.6568553  35.9123833  61.8708903  47.9308553  35.5863833  60.5668903
  47.6628553  36.0883833  61.1068903  33.6948553  50.6813833  73.5098903
  34.4508553  51.0303833  73.7678903  33.8718553  49.8283833  73.4528903
  33.8328553  50.6063833  73.5398903  50.0718553  40.4663833  69.3678903
  50.8438553  40.2413833  69.7048903  49.5968553  40.6833833  70.0678903
  50.1158553  40.4653833  69.5208903  37.6158553  39.7493833  62.3378903
  37.8878553  39.3193833  61.6298903  37.4398553  39.1133833  62.9088903
  37.6298553  39.5923833  62.3178903  50.3038553  47.4443833  56.5558903
  50.4228553  47.1573833  57.3708903  51.1108553  47.4653833  56.2258903
  50.4398553  47.4053833  56.6278903  37.4398553  47.1763833  61.8868903
  38.2908553  47.0963833  61.7138903  37.0828553  46.4943833  61.4748903
  37.5128553  47.0633833  61.7998903  36.2068553  53.9013833  63.1238903
  35.5338553  53.4033833  62.8788903  36.6098553  54.0863833  62.3728903
  36.1668553  53.8553833  62.9768903  35.7568553  40.8513833  65.4198903
  36.5998553  41.0713833  65.3768903  35.3678553  41.4243833  64.8888903
  35.8238553  40.9683833  65.3348903  52.5378553  51.9533833  70.8098903
  51.8558553  52.2633833  70.3628903  52.1688553  51.4953833  71.4548903
  52.3818553  51.9313833  70.8388903  48.1988553  43.9813833  56.1408903
  47.9788553  44.7123833  55.7188903  47.7508553  44.0323833  56.8878903
  48.0998553  44.0963833  56.1888903  39.8078553  47.1833833  60.1218903
  40.5208553  47.6783833  60.2118903  40.0298553  46.6163833  59.4958903
  39.9458553  47.1723833  60.0428903  52.3858553  38.8423833  55.5938903
  51.7238553  38.2743833  55.6168903  52.1928553  39.3543833  54.9138903
  52.2598553  38.8343833  55.4968903  33.9638553  48.8263833  63.4418903
  33.2968553  49.3143833  63.7178903  34.6438553  49.3713833  63.4708903
  33.9658553  48.9783833  63.4868903  41.6108553  42.5363833  73.5378903
  41.1268553  43.1133833  73.9798903  41.5828553  42.8313833  72.7168903
  41.5348553  42.6653833  73.4818903  52.7088553  43.2203833  68.1498903
  52.9238553  42.4203833  67.8738903  51.8588553  43.2803833  67.9608903
  52.6148553  43.1113833  68.0808903  34.0298553  45.5103833  58.5448903
  33.8448553  44.6713833  58.6968903  34.6888553  45.4743833  57.9748903
  34.0998553  45.3813833  58.4828903  50.3878553  38.4003833  57.8728903
  51.1338553  37.9933833  58.0718903  50.6508553  39.1153833  57.4478903
  50.5368553  38.4463833  57.8398903  44.3308553  50.8863833  62.4488903
  43.8078553  51.5203833  62.1558903  44.6408553  50.5223833  61.7198903
  44.2988553  50.9263833  62.2978903  34.2018553  49.6743833  58.1198903
  34.7538553  50.2433833  58.4838903  33.9698553  49.1593833  58.7848903
  34.2488553  49.6823833  58.2718903  38.4058553  48.6743833  65.2088903
  38.8728553  48.9633833  65.8868903  38.9778553  48.1963833  64.7548903
  38.5598553  48.6463833  65.2418903  46.8418553  40.6883833  62.9458903
  47.1858553  40.8403833  63.7328903  46.3888553  39.9503833  63.0588903
  46.8258553  40.6013833  63.0788903  34.0318553  48.1233833  55.7478903
  34.7878553  47.6913833  55.8058903  34.0468553  48.6553833  56.4388903
  34.1458553  48.1383833  55.8588903  34.9718553  46.3443833  63.7528903
  35.4028553  46.2153833  63.0058903  34.7668553  47.1923833  63.7268903
  35.0048553  46.4503833  63.6388903  41.3178553  39.9083833  57.4028903
  41.3158553  39.7913833  56.5378903  41.1368553  40.7563833  57.4948903
  41.2908553  40.0163833  57.2888903  50.3718553  52.3353833  68.8998903
  49.7008553  52.8493833  69.1178903  50.4348553  52.4353833  68.0358903
  50.2818553  52.4263833  68.8048903  39.0558553  49.8603833  62.0348903
  39.1818553  50.7033833  62.2218903  39.7238553  49.4613833  62.4308903
  39.1738553  49.9263833  62.1208903  37.1858553  43.3433833  71.8968903
  36.6498553  42.8373833  72.3648903  37.2058553  42.9533833  71.1168903
  37.1088553  43.2103833  71.8508903  37.6708553  42.7403833  57.0368903
  37.5428553  42.2923833  57.7748903  37.0888553  42.3983833  56.4848903
  37.5658553  42.6233833  57.0648903  37.8378553  44.5703833  63.6358903
  37.0568553  44.5113833  63.2528903  37.9098553  43.8183833  64.0728903
  37.7328553  44.4513833  63.6438903  38.2678553  44.3073833  67.1038903
  38.2928553  43.6323833  66.5528903  37.6218553  44.8033833  66.7918903
  38.1768553  44.2803833  66.9768903  48.1628553  42.0203833  65.4998903
  47.5008553  42.3483833  65.9628903  48.3498553  42.6543833  64.9308903
  48.0928553  42.1623833  65.4838903  42.3678553  53.0843833  66.4958903
  42.0908553  52.4433833  65.9728903  42.1598553  53.8103833  66.0578903
  42.2968553  53.0973833  66.3538903  44.8078553  37.9263833  68.9288903
  44.9568553  37.1013833  68.6858903  45.1868553  37.9813833  69.7128903
  44.8858553  37.8123833  69.0088903  46.3558553  39.9893833  59.0108903
  46.8458553  40.7063833  58.9338903  45.5658553  40.2503833  58.7478903
  46.3118553  40.1333833  58.9608903  36.0668553  45.6623833  72.6628903
  36.0298553  46.1633833  71.9488903  36.3978553  44.9103833  72.3678903
  36.1098553  45.6243833  72.5138903  47.6698553  47.8673833  70.9208903
  48.1538553  48.5853833  71.0188903  48.0638553  47.4403833  70.2698903
  47.7998553  47.9103833  70.8388903  41.9658553  50.7123833  72.0978903
  42.3198553  50.5343833  72.8748903  41.5298553  49.9833833  71.8988903
  41.9538553  50.5783833  72.1838903  42.9378553  41.4593833  64.7358903
  43.4178553  42.1583833  64.9438903  43.3108553  40.8123833  65.1868903
  43.0638553  41.4673833  64.8328903  45.1268553  44.6283833  57.0098903
  45.1188553  45.3503833  56.5198903  44.4878553  44.7633833  57.5868903
  45.0318553  44.7553833  57.0228903  50.0988553  48.4983833  60.9908903
  50.4548553  48.1483833  61.7058903  50.0908553  47.8373833  60.4208903
  50.1508553  48.3483833  61.0118903  46.1438553  51.5643833  64.8348903
  45.5408553  51.2683833  64.2778903  46.6888553  52.0163833  64.3258903
  46.1348553  51.5873833  64.6768903  46.1568553  48.4153833  64.2348903
  45.3598553  48.6393833  64.5088903  46.4148553  47.8213833  64.8198903
  46.0768553  48.3603833  64.3618903  40.0488553  53.2273833  58.6828903
  39.9018553  52.4513833  59.0538903  40.7378553  53.0803833  58.1678903
  40.1288553  53.0903833  58.6618903  42.3408553  52.7433833  57.0848903
  42.9628553  52.9063833  57.6748903  42.3768553  53.4343833  56.5528903
  42.4378553  52.8693833  57.0938903  49.4168553  46.4133833  69.0808903
  49.4718553  46.5383833  68.2188903  50.1698553  46.7333833  69.3828903
  49.5358553  46.4783833  68.9978903  45.6078553  51.7623833  73.3578903
  45.7718553  52.0453833  74.1668903  45.8708553  52.4233833  72.8528903
  45.6708553  51.9023833  73.4028903  50.4488553  36.7113833  72.0678903
  49.8118553  36.3113833  71.6258903  50.4748553  36.2803833  72.8258903
  50.3588553  36.5893833  72.1138903  36.8418553  45.2773833  57.9138903
  37.1658553  44.4983833  57.6918903  37.4878553  45.6453833  58.3688903
  36.9848553  45.2163833  57.9478903  45.1478553  46.2193833  68.6808903
  44.9928553  46.8293833  69.2848903  45.6818553  45.6613833  69.0868903
  45.2038553  46.2273833  68.8298903  43.5318553  44.6193833  59.3388903
  43.5908553  45.2693833  59.9178903  43.3428553  43.9233833  59.8298903
  43.5128553  44.6123833  59.4968903  48.7578553  48.9483833  65.2078903
  48.2788553  49.2463833  64.5418903  48.4018553  48.1723833  65.3858903
  48.6348553  48.8773833  65.1358903  42.7548553  46.6663833  63.7698903
  41.9078553  46.4723833  63.8508903  43.0788553  46.5013833  64.5628903
  42.6768553  46.6133833  63.8988903  39.5068553  53.3963833  54.6558903
  39.9458553  52.6993833  54.9438903  39.7138553  54.0203833  55.2288903
  39.6028553  53.3853833  54.7828903  36.6028553  46.3593833  66.0858903
  37.3248553  46.8473833  66.0488903  36.3328553  46.3293833  65.2568903
  36.6698553  46.4273833  65.9578903  39.8328553  41.5303833  62.8208903
  40.6788553  41.3403833  62.9188903  39.4628553  40.7533833  62.6828903
  39.9028553  41.3873833  62.8148903  52.4498553  53.1143833  57.1478903
  53.1438553  52.6473833  56.8998903  51.9108553  52.5163833  57.4848903
  52.4728553  52.9563833  57.1608903  34.6538553  42.8683833  59.4758903
  35.1428553  42.5763833  60.1368903  34.7828553  42.2753833  58.8488903
  34.7448553  42.7373833  59.4808903  49.6888553  45.8903833  66.3268903
  49.6818553  45.1143833  66.7248903  48.8478553  46.1243833  66.3198903
  49.5638553  45.8103833  66.3848903  39.1788553  44.3023833  54.9618903
  38.5688553  43.8973833  55.4358903  38.7928553  44.4203833  54.1888903
  39.0318553  44.2593833  54.9178903  35.9978553  47.4113833  70.3638903
  35.5768553  46.8933833  69.8028903  35.6458553  48.1973833  70.2208903
  35.8838553  47.4513833  70.2598903  50.9448553  45.9613833  63.7638903
  50.6588553  46.3623833  64.4838903  51.8048553  45.8993833  63.8908903
  51.0298553  46.0113833  63.8888903  40.6338553  42.7633833  57.6718903
  40.9058553  43.5893833  57.7388903  39.7708553  42.8383833  57.5758903
  40.5468553  42.8963833  57.6668903  48.6068553  39.8853833  72.3038903
  48.0818553  40.3443833  72.8278903  48.2458553  39.0903833  72.2978903
  48.4758553  39.8353833  72.3798903  34.1138553  38.7333833  64.2078903
  34.1578553  39.0773833  63.4068903  34.8688553  38.9703833  64.5748903
  34.2318553  38.8193833  64.1438903  52.0758553  51.5943833  64.2928903
  52.3658553  51.8513833  63.5118903  52.7708553  51.6903833  64.8118903
  52.2218553  51.6463833  64.2538903  47.0988553  43.4543833  72.3798903
  47.1718553  43.5583833  73.2428903  46.4648553  44.0123833  72.1588903
  47.0158553  43.5523833  72.4748903  49.3668553  43.7733833  70.7448903
  49.6858553  44.5593833  70.9478903  48.9968553  43.5033833  71.4878903
  49.3598553  43.8493833  70.8848903  48.6808553  50.1973833  56.2748903
  49.0148553  49.3913833  56.3098903  47.9258553  50.1253833  56.7048903
  48.6188553  50.0673833  56.3438903  49.1628553  42.0313833  61.9338903
  48.4178553  41.7083833  62.2518903  49.1648553  42.8573833  62.2138903
  49.0528553  42.1053833  62.0218903  52.0648553  44.3153833  73.4798903
  52.0128553  43.9743833  72.6788903  52.8018553  44.7823833  73.4578903
  52.1658553  44.3343833  73.3578903  51.6028553  47.9913833  69.6858903
  52.2308553  47.4423833  69.4298903  51.5418553  48.5563833  69.0238903
  51.6868553  47.9943833  69.5498903  46.0548553  48.0723833  55.6778903
  46.7388553  47.5583833  55.5088903  45.6378553  48.1183833  54.9128903
  46.0938553  48.0033833  55.5398903  40.7368553  49.2223833  66.9818903
  40.4388553  49.8143833  67.5488903  40.7918553  49.6643833  66.2328903
  40.7008553  49.3753833  66.9548903  38.7158553  48.1723833  70.3798903
  37.9098553  47.8823833  70.5468903  38.6268553  49.0403833  70.3858903
  38.5838553  48.2573833  70.4048903  48.0748553  38.3613833  69.3948903
  48.8188553  38.8133833  69.3318903  47.5088553  38.8313833  68.9258903
  48.1018553  38.4983833  69.3168903  43.2528553  45.6453833  66.4728903
  43.7288553  46.0193833  67.1008903  42.4298553  45.7793833  66.7318903
  43.2018553  45.7203833  66.6038903  39.9628553  41.2483833  69.2138903
  40.1238553  40.5043833  69.6408903  39.9178553  40.9993833  68.3788903
  39.9798553  41.1013833  69.1538903  42.5168553  53.0383833  61.7008903
  43.0628553  53.7173833  61.7548903  42.1668553  53.1203833  60.9058903
  42.5458553  53.1513833  61.5908903  49.3598553  36.3413833  67.0648903
  49.0798553  37.1663833  67.0208903  50.0758553  36.3943833  67.5608903
  49.4248553  36.4713833  67.1318903  41.7148553  37.0563833  69.0938903
  42.4198553  37.3763833  68.6918903  41.9558553  36.2493833  69.3208903
  41.8538553  36.9843833  69.0678903  40.6998553  51.2663833  65.0898903
  40.0758553  51.8483833  64.9078903  40.9478553  50.9803833  64.3038903
  40.6438553  51.3103833  64.9468903  45.0088553  47.9003833  72.0788903
  45.7658553  48.1863833  71.7528903  44.4618553  47.9523833  71.4008903
  45.0398553  47.9503833  71.9298903  48.9178553  50.4503833  70.5828903
  49.2638553  50.7203833  71.3368903  49.2118553  51.0323833  70.0028903
  49.0128553  50.5763833  70.6088903  50.7808553  42.5963833  55.9218903
  51.1588553  43.2733833  55.5218903  49.9388553  42.8203833  55.9528903
  50.7118553  42.7293833  55.8668903  42.2938553  46.0423833  55.0048903
  41.4888553  45.8653833  54.7198903  42.2608553  46.8933833  55.1968903
  42.1698553  46.1413833  54.9918903  38.2238553  42.1093833  65.1548903
  38.6638553  42.0063833  64.4088903  38.7688553  41.7963833  65.7598903
  38.3688553  42.0483833  65.1338903  46.2398553  41.2113833  70.7468903
  45.5918553  41.6813833  71.0948903  46.8048553  41.1223833  71.4058903
  46.2278553  41.2673833  70.8958903  45.9278553  42.7483833  67.0448903
  46.2298553  43.1683833  67.7478903  45.9638553  41.9083833  67.2768903
  45.9778553  42.6863833  67.1828903  43.3528553  52.9153833  70.9698903
  43.8308553  52.3153833  70.5538903  43.0018553  52.4723833  71.6348903
  43.3718553  52.7613833  71.0068903  48.4758553  42.1953833  59.2968903
  48.6828553  41.9943833  60.1208903  49.2318553  42.4633833  58.9548903
  48.6178553  42.2053833  59.3678903  49.4978553  38.2783833  60.7708903
  48.7838553  37.8073833  60.9418903  49.3358553  38.6193833  59.9848903
  49.3688553  38.2593833  60.6798903  49.9408553  46.2223833  59.1508903
  50.4168553  45.4933833  59.1028903  49.1198553  45.9363833  59.0748903
  49.8898553  46.0723833  59.1318903  43.4118553  48.1343833  69.9898903
  42.6168553  48.0703833  70.3408903  43.4828553  48.9813833  69.7948903
  43.3048553  48.2493833  70.0128903  34.3358553  37.4923833  71.2368903
  34.1958553  38.2873833  70.9058903  33.5498553  37.2493833  71.5258903
  34.1988553  37.5743833  71.2308903  39.2418553  54.3413833  65.3068903
  39.2528553  54.4003833  66.1768903  38.8168553  53.5943833  65.1568903
  39.1808553  54.2393833  65.4128903  37.3998553  40.2363833  58.4618903
  37.5258553  39.9073833  57.6638903  36.5878553  39.9873833  58.6608903
  37.2988553  40.1513833  58.3738903  46.1568553  47.3893833  61.5058903
  46.2328553  47.7303833  62.3048903  46.3258553  46.5423833  61.6268903
  46.1928553  47.3143833  61.6418903  43.6788553  46.6633833  61.0708903
  43.3808553  46.3483833  61.8278903  44.3738553  47.1363833  61.3058903
  43.7378553  46.6863833  61.2178903  43.9008553  50.7813833  69.0978903
  44.5878553  50.6673833  69.6228903  44.0348553  51.5723833  68.7538903
  44.0218553  50.8813833  69.1248903  52.0768553  43.3903833  70.9088903
  51.2218553  43.2683833  71.0348903  52.2298553  42.9953833  70.1458903
  51.9728553  43.3133833  70.8148903  36.0058553  53.8393833  70.7488903
  35.3518553  53.2703833  70.8468903  35.6308553  54.6123833  70.8998903
  35.8538553  53.8693833  70.7858903  44.5238553  45.2453833  72.6718903
  44.8468553  45.9313833  72.2398903  43.8198553  45.5683833  73.0738903
  44.4668553  45.3943833  72.6668903  47.6078553  53.6193833  63.6008903
  47.1568553  54.2623833  63.9798903  48.3158553  53.5403833  64.1058903
  47.6458553  53.7023833  63.7318903  44.3088553  48.7093833  66.5308903
  43.6148553  49.1113833  66.8738903  44.9858553  49.1423833  66.8698903
  44.3058553  48.8323833  66.6318903  49.6858553  51.3023833  73.1108903
  50.4618553  50.9123833  73.1938903  49.2168553  50.9663833  73.7658903
  49.7308553  51.1953833  73.2198903  37.3768553  42.2473833  68.8778903
  37.7518553  42.8663833  68.3908903  38.0508553  41.7733833  69.1628903
  37.5318553  42.2693833  68.8478903  35.1518553  40.6953833  68.1528903
  35.2288553  40.5263833  67.2998903  35.8978553  41.1013833  68.3498903
  35.2728553  40.7303833  68.0558903  50.7108553  43.3353833  58.5928903
  50.8138553  43.2773833  57.7288903  51.4518553  43.0033833  58.9108903
  50.8358553  43.2783833  58.5118903  37.7058553  38.1053833  70.5638903
  37.6248553  37.2613833  70.7698903  37.3918553  38.1493833  69.7508903
  37.6478553  37.9873833  70.4738903  44.6308553  50.3003833  59.6998903
  44.4258553  51.1333833  59.5408903  43.8558553  49.9183833  59.8218903
  44.4858553  50.3673833  59.6948903  49.8128553  43.4813833  67.9488903
  49.8108553  42.6183833  68.0728903  49.8798553  43.8053833  68.7558903
  49.8228553  43.4013833  68.0858903  34.5488553  45.9213833  68.3768903
  34.8688553  46.1403833  67.5958903  34.4488553  45.0563833  68.3218903
  34.5808553  45.8263833  68.2538903  36.0048553  41.8573833  54.9948903
  35.3328553  41.8713833  55.5508903  36.0998553  41.0093833  54.8108903
  35.9198553  41.7343833  55.0498903  45.6918553  38.2813833  71.7308903
  45.7838553  38.9933833  72.2248903  45.0548553  37.8363833  72.1278903
  45.6108553  38.3203833  71.8628903  44.6858553  38.4713833  62.5848903
  43.9858553  38.9893833  62.5288903  44.7238553  38.0913833  61.8008903
  44.5878553  38.4923833  62.4608903  39.9928553  50.5623833  56.1088903
  40.4338553  50.6423833  56.8568903  39.1878553  50.3463833  56.3668903
  39.9388553  50.5423833  56.2578903  39.3118553  45.2133833  69.7618903
  38.9158553  45.9873833  69.8368903  38.9058553  44.8403833  69.0858903
  39.1938553  45.2723833  69.6728903  48.5878553  44.2673833  63.8758903
  49.2538553  44.8083833  64.0358903  48.2428553  44.5783833  63.1368903
  48.6348553  44.3933833  63.7908903  48.9008553  52.3333833  59.6828903
  48.7268553  51.6793833  60.2328903  49.6138553  52.0623833  59.2598903
  48.9808553  52.1963833  59.7018903  37.3218553  49.6323833  56.7098903
  37.0778553  49.3253833  57.4898903  37.2888553  48.9293833  56.1938903
  37.2808553  49.4833833  56.7488903  40.1408553  47.8773833  55.4528903
  39.3228553  47.6093833  55.5928903  40.1128553  48.7293833  55.6378903
  40.0158553  47.9643833  55.5008903  39.7408553  38.1903833  67.2118903
  38.8768553  38.2743833  67.2918903  39.9608553  37.6763833  67.8808903
  39.6458553  38.1273833  67.3228903  51.7588553  36.8253833  68.5408903
  51.7068553  36.7813833  69.4108903  52.4458553  36.3223833  68.3508903
  51.8528553  36.7453833  68.6408903  43.8438553  38.9383833  65.5858903
  43.1068553  38.4843833  65.6988903  44.4148553  38.5363833  66.1088903
  43.8188553  38.8113833  65.6798903  46.5758553  49.7863833  67.3738903
  46.7818553  50.0873833  68.1658903  46.5148553  50.5083833  66.8888903
  46.5968553  49.9373833  67.4188903  46.1098553  54.0003833  71.6198903
  45.3568553  53.9823833  71.1788903  46.2778553  54.8523833  71.7038903
  46.0238553  54.1233833  71.5668903  41.3468553  43.2673833  70.7898903
  41.0248553  42.6913833  70.2198903  40.9878553  44.0223833  70.5438903
  41.2468553  43.2933833  70.6698903  42.1428553  36.5193833  55.4168903
  42.2208553  36.7663833  54.5838903  41.3998553  36.8963833  55.6748903
  42.0448553  36.6113833  55.3318903  51.3878553  48.4253833  66.8318903
  51.3558553  47.5633833  66.6968903  50.6948553  48.7273833  66.3978903
  51.2808553  48.3423833  66.7478903  39.7818553  53.6233833  71.0378903
  39.8228553  53.7493833  71.9008903  40.4328553  53.0633833  70.8818903
  39.8838553  53.5593833  71.1428903  49.4928553  51.6853833  65.6288903
  50.0198553  51.6023833  64.9378903  49.1018553  50.9073833  65.6828903
  49.5128553  51.5583833  65.5348903  36.9608553  38.2733833  67.8598903
  36.6178553  37.5063833  67.6258903  36.2658553  38.7973833  67.9238903
  36.8078553  38.2373833  67.8348903  46.0068553  37.1293833  64.8368903
  46.6768553  37.6733833  64.9638903  45.5038553  37.5533833  64.2638903
  46.0318553  37.2723833  64.7708903  37.3748553  52.0063833  72.3978903
  37.9698553  52.4373833  72.8698903  37.0108553  52.6303833  71.9088903
  37.4088553  52.1623833  72.3948903  45.3658553  42.9373833  62.3298903
  45.9168553  42.3303833  62.6298903  44.9408553  43.2003833  63.0448903
  45.3848553  42.8863833  62.4788903  35.6138553  41.5873833  61.8158903
  35.2458553  41.8893833  62.5468903  36.1478553  40.9583833  62.0998903
  35.6378553  41.5393833  61.9658903  35.3018553  49.9953833  69.3268903
  34.7278553  50.4113833  69.8358903  36.0348553  50.4603833  69.4218903
  35.3258553  50.1253833  69.4158903  47.3358553  44.7683833  58.8918903
  47.4038553  43.9183833  59.0728903  46.5128553  44.8543833  58.6138903
  47.2238553  44.6553833  58.8778903  37.0878553  53.2623833  58.1018903
  36.9428553  53.4183833  57.2558903  37.9538553  53.3413833  58.1798903
  37.1948553  53.2973833  57.9888903  41.2548553  45.6593833  57.8298903
  41.3548553  45.7983833  56.9748903  42.0728553  45.5993833  58.1258903
  41.3898553  45.6703833  57.7468903  50.4148553  53.7233833  55.3098903
  51.0518553  53.5893833  55.8908903  50.0738553  52.9293833  55.1928903
  50.4588553  53.5863833  55.3778903  50.6098553  46.1413833  72.0428903
  51.2438553  45.9713833  72.6168903  51.0268553  46.5443833  71.3908903
  50.7648553  46.1763833  72.0318903  46.4898553  49.9883833  57.6318903
  46.2388553  49.8603833  58.4578903  46.1728553  49.2933833  57.2108903
  46.4058553  49.8673833  57.6918903  51.2348553  40.7053833  72.7808903
  51.0388553  41.3493833  73.3358903  50.5128553  40.2153833  72.7728903
  51.0998553  40.7283833  72.8618903  51.1338553  41.6463833  65.7518903
  50.3008553  41.8963833  65.6798903  51.0778553  40.8063833  65.9808903
  51.0028553  41.5593833  65.7748903  48.0208553  46.2523833  73.3978903
  48.8918553  46.2163833  73.3618903  47.8018553  46.6723833  72.6658903
  48.1178553  46.3083833  73.2848903  37.7748553  52.0773833  64.5788903
  37.6958553  51.2673833  64.2628903  37.3308553  52.5643833  64.0068903
  37.6978553  52.0293833  64.4478903  43.3758553  48.1963833  57.0618903
  44.0928553  47.8493833  56.7058903  43.3418553  48.9963833  56.7138903
  43.4768553  48.2633833  56.9578903  35.3468553  54.3213833  68.1598903
  35.8398553  54.2653833  68.8778903  35.5348553  53.5883833  67.7248903
  35.4478553  54.2043833  68.2018903  44.7848553  36.8373833  41.3006493
  44.5398553  37.3253833  40.6206493  45.6478553  36.7643833  41.2006493
  44.8758553  36.8983833  41.1856493  44.5938553  43.7533833  45.9716493
  44.0698553  44.3493833  46.3346493  44.9908553  43.3853833  46.6556493
  44.5748553  43.7873833  46.1266493  34.4628553  47.8933833  41.4276493
  34.0218553  48.0113833  42.1706493  34.1798553  47.1183833  41.1426493
  34.3558553  47.7963833  41.4956493  50.7378553  51.1943833  38.9426493
  51.4388553  50.6753833  38.9386493  50.1508553  50.7493833  38.4736493
  50.7548553  51.0513833  38.8726493  37.3448553  46.9483833  36.6066493
  36.9528553  46.5773833  35.9206493  37.2648553  46.3503833  37.2356493
  37.2748553  46.8053833  36.5976493  47.2648553  44.8203833  42.6476493
  47.3448553  44.8243833  41.7786493  46.6808553  44.1883833  42.7966493
  47.1898553  44.7273833  42.5416493  36.9718553  48.5893833  40.5066493
  37.5798553  48.4193833  41.1096493  36.2208553  48.4493833  40.9276493
  36.9508553  48.5433833  40.6576493  41.2538553  37.9243833  40.4556493
  41.1838553  38.6013833  39.9096493  41.9948553  37.5363833  40.2066493
  41.3528553  37.9673833  40.3376493  35.8628553  51.6803833  36.5836493
  36.3298553  51.7643833  35.8516493  36.3178553  51.1023833  37.0526493
  35.9988553  51.6073833  36.5446493  34.4028553  50.6283833  47.6826493
  34.5318553  50.3483833  48.4986493  33.7928553  50.0873833  47.3736493
  34.3318553  50.5073833  47.7576493  40.9768553  48.1533833  52.7496493
  40.7408553  48.1503833  53.5896493  40.2288553  48.0053833  52.3256493
  40.8308553  48.1303833  52.8106493  35.8488553  45.1493833  41.8846493
  35.3868553  44.7573833  41.2576493  36.5488553  44.6363833  41.9766493
  35.8838553  45.0163833  41.8056493  40.3568553  40.7593833  47.2316493
  41.0348553  40.7773833  46.6826493  40.3118553  39.9233833  47.4766493
  40.4498553  40.6383833  47.1866493  40.9588553  51.3453833  50.0126493
  41.0968553  52.1053833  49.6056493  41.7498553  50.9803833  50.0396493
  41.0958553  51.4043833  49.9566493  37.8498553  43.2493833  41.9076493
  38.6668553  43.0623833  42.1506493  37.3728553  42.6353833  42.3036493
  37.8998553  43.1313833  42.0026493  42.0538553  49.2303833  44.5176493
  42.4018553  48.4313833  44.5476493  42.7188553  49.7343833  44.2626493
  42.2038553  49.1863833  44.4846493  42.1108553  48.6793833  40.7286493
  42.4418553  48.0353833  41.2146493  42.3508553  48.4683833  39.9176493
  42.1948553  48.5533833  40.6806493  44.0788553  42.8103833  52.0676493
  43.2308553  42.7113833  51.8896493  44.1078553  43.5553833  52.5216493
  43.9578553  42.9063833  52.1086493  38.4468553  38.3433833  41.1736493
  38.1508553  38.8443833  40.5236493  39.3138553  38.4213833  41.1166493
  38.5308553  38.4293833  41.0696493  48.6368553  35.7703833  51.1816493
  48.4788553  36.5393833  50.7996493  47.8648553  35.5503833  51.5256493
  48.4988553  35.8513833  51.1766493  41.4258553  37.4853833  43.3966493
  41.4988553  38.3453833  43.5256493  41.3878553  37.4103833  42.5286493
  41.4308553  37.6013833  43.2876493  46.0988553  40.4113833  35.6956493
  45.6488553  41.0923833  36.0026493  46.2128553  39.9073833  36.3986493
  46.0498553  40.4373833  35.8446493  34.3048553  42.9103833  44.8976493
  34.0488553  43.7413833  44.8226493  33.6408553  42.5273833  45.3146493
  34.1688553  42.9763833  44.9486493  34.2148553  52.6203833  42.7976493
  33.6228553  53.1783833  42.4846493  34.6408553  52.3513833  42.0856493
  34.1908553  52.6623833  42.6466493  40.0548553  50.4643833  40.2776493
  39.4758553  50.1893833  40.8696493  40.6788553  49.8553833  40.3026493
  40.0618553  50.3343833  40.3686493  46.1978553  52.7523833  37.7996493
  46.9248553  53.2243833  37.9016493  46.4268553  51.9583833  38.0796493
  46.3398553  52.7053833  37.8566493  44.3658553  53.1443833  39.7896493
  44.5798553  53.6713833  40.4516493  45.1328553  52.9703833  39.4106493
  44.5108553  53.1963833  39.8316493  37.3338553  37.7273833  45.3886493
  36.8128553  37.0993833  45.0806493  37.9248553  37.2903833  45.8596493
  37.3448553  37.5693833  45.4126493  35.7598553  51.2903833  40.7286493
  36.4158553  50.7153833  40.7436493  36.1488553  52.0393833  40.5076493
  35.9148553  51.3153833  40.6986493  51.4928553  40.3843833  41.9906493
  51.1468553  41.0623833  42.4166493  50.8568553  39.7863833  42.0066493
  51.3478553  40.3963833  42.0556493  46.8048553  53.1543833  48.0946493
  47.5488553  53.6103833  48.0846493  46.6838553  52.9403833  47.2576493
  46.8968553  53.1903833  47.9696493  36.5778553  49.7773833  44.2286493
  37.0008553  49.4213833  43.5546493  36.9018553  49.3553833  44.9206493
  36.6878553  49.6623833  44.2316493  39.8088553  52.6293833  43.5246493
  40.6528553  52.7333833  43.3296493  39.5118553  53.4473833  43.5926493
  39.8898553  52.7653833  43.5056493  43.0218553  37.1003833  52.8386493
  43.1998553  36.2913833  52.5636493  42.8788553  37.5413833  52.0996493
  43.0268553  37.0463833  52.6886493  43.6158553  42.0263833  41.6116493
  43.9028553  41.7943833  40.8216493  44.3478553  42.1053833  42.0806493
  43.7658553  42.0033833  41.5646493  44.3378553  42.3653833  36.7326493
  44.6188553  43.1533833  36.9816493  43.5618553  42.5303833  36.3696493
  44.2648553  42.5063833  36.7156493  48.3788553  54.3393833  38.1996493
  49.0438553  54.1913833  37.6546493  48.7388553  54.2563833  38.9896493
  48.5308553  54.3053833  38.2356493  38.8068553  53.8483833  49.2646493
  39.0988553  53.7813833  50.0846493  38.1808553  53.2433833  49.2196493
  38.7578553  53.7493833  49.3796493  51.1678553  38.7073833  47.3596493
  51.9248553  38.7793833  46.9316493  51.2308553  37.9343833  47.7586493
  51.2888553  38.6043833  47.3546493  46.0588553  50.3393833  51.7986493
  46.0248553  50.7213833  52.5826493  46.9128553  50.2973833  51.6276493
  46.1798553  50.3893833  51.8896493  43.1968553  50.5363833  36.5486493
  43.0158553  51.0813833  37.2056493  43.9628553  50.8263833  36.2476493
  43.2828553  50.6603833  36.6016493  46.7038553  38.4323833  37.6026493
  47.2438553  37.7503833  37.6786493  46.7658553  38.8303833  38.3766493
  46.7928553  38.3903833  37.7286493  36.7998553  52.0103833  48.3866493
  36.1018553  51.5023833  48.5126493  37.0598553  51.8053833  47.5786493
  36.7348553  51.9053833  48.2856493  43.9618553  40.8083833  38.9166493
  43.4538553  40.1463833  38.6626493  44.0138553  41.3123833  38.2066493
  43.8948553  40.7853833  38.7746493  44.5108553  53.5033833  49.2966493
  45.2788553  53.4233833  48.8906493  43.9278553  53.3823833  48.6586493
  44.5378553  53.4733833  49.1426493  43.9618553  37.7493833  38.8076493
  43.5068553  37.3473833  38.1816493  44.7348553  37.9043833  38.4326493
  44.0088553  37.7133833  38.6596493  50.7878553  54.1063833  42.1976493
  50.3328553  54.8233833  42.3986493  50.1738553  53.5353833  41.9556493
  50.6298553  54.1283833  42.1916493  42.5598553  40.1163833  43.3296493
  42.6338553  40.6843833  42.6716493  42.6808553  40.6083833  44.0396493
  42.5878553  40.2733833  43.3376493  47.7848553  49.9513833  41.7416493
  48.4858553  49.4693833  41.9306493  47.1248553  49.3823833  41.7866493
  47.7908553  49.7963833  41.7756493  38.1608553  50.8613833  50.9536493
  39.0018553  50.9243833  50.7316493  38.1238553  51.2583833  51.7296493
  38.2798553  50.9293833  51.0356493  37.1678553  35.9393833  41.6776493
  37.7038553  36.6273833  41.6676493  37.1708553  35.6653833  40.8496493
  37.2468553  36.0003833  41.5536493  40.1238553  46.3723833  45.7026493
  40.2958553  46.1623833  46.5316493  39.4688553  45.8383833  45.4866493
  40.0528553  46.2623833  45.7936493  46.3518553  40.2863833  49.2176493
  46.2568553  40.6053833  50.0236493  45.7588553  39.6473833  49.1796493
  46.2498553  40.2383833  49.3316493  40.8738553  46.3103833  48.2926493
  40.9268553  47.1573833  48.4946493  40.5888553  45.9403833  49.0296493
  40.8398553  46.3803833  48.4306493  47.0508553  47.0053833  47.4226493
  46.5368553  46.5933833  47.9936493  46.9248553  47.8493833  47.6036493
  46.9568553  47.0693833  47.5336493  47.6078553  36.2303833  42.0536493
  47.6568553  35.9123833  42.8646493  47.9308553  35.5863833  41.5606493
  47.6628553  36.0883833  42.1006493  33.6948553  50.6813833  54.5036493
  34.4508553  51.0303833  54.7616493  33.8718553  49.8283833  54.4466493
  33.8328553  50.6063833  54.5336493  50.0718553  40.4663833  50.3616493
  50.8438553  40.2413833  50.6986493  49.5968553  40.6833833  51.0616493
  50.1158553  40.4653833  50.5146493  37.6158553  39.7493833  43.3316493
  37.8878553  39.3193833  42.6236493  37.4398553  39.1133833  43.9026493
  37.6298553  39.5923833  43.3116493  50.3038553  47.4443833  37.5496493
  50.4228553  47.1573833  38.3646493  51.1108553  47.4653833  37.2196493
  50.4398553  47.4053833  37.6216493  37.4398553  47.1763833  42.8806493
  38.2908553  47.0963833  42.7076493  37.0828553  46.4943833  42.4686493
  37.5128553  47.0633833  42.7936493  36.2068553  53.9013833  44.1176493
  35.5338553  53.4033833  43.8726493  36.6098553  54.0863833  43.3666493
  36.1668553  53.8553833  43.9706493  35.7568553  40.8513833  46.4136493
  36.5998553  41.0713833  46.3706493  35.3678553  41.4243833  45.8826493
  35.8238553  40.9683833  46.3286493  52.5378553  51.9533833  51.8036493
  51.8558553  52.2633833  51.3566493  52.1688553  51.4953833  52.4486493
  52.3818553  51.9313833  51.8326493  48.1988553  43.9813833  37.1346493
  47.9788553  44.7123833  36.7126493  47.7508553  44.0323833  37.8816493
  48.0998553  44.0963833  37.1826493  39.8078553  47.1833833  41.1156493
  40.5208553  47.6783833  41.2056493  40.0298553  46.6163833  40.4896493
  39.9458553  47.1723833  41.0366493  52.3858553  38.8423833  36.5876493
  51.7238553  38.2743833  36.6106493  52.1928553  39.3543833  35.9076493
  52.2598553  38.8343833  36.4906493  33.9638553  48.8263833  44.4356493
  33.2968553  49.3143833  44.7116493  34.6438553  49.3713833  44.4646493
  33.9658553  48.9783833  44.4806493  41.6108553  42.5363833  54.5316493
  41.1268553  43.1133833  54.9736493  41.5828553  42.8313833  53.7106493
  41.5348553  42.6653833  54.4756493  52.7088553  43.2203833  49.1436493
  52.9238553  42.4203833  48.8676493  51.8588553  43.2803833  48.9546493
  52.6148553  43.1113833  49.0746493  34.0298553  45.5103833  39.5386493
  33.8448553  44.6713833  39.6906493  34.6888553  45.4743833  38.9686493
  34.0998553  45.3813833  39.4766493  50.3878553  38.4003833  38.8666493
  51.1338553  37.9933833  39.0656493  50.6508553  39.1153833  38.4416493
  50.5368553  38.4463833  38.8336493  44.3308553  50.8863833  43.4426493
  43.8078553  51.5203833  43.1496493  44.6408553  50.5223833  42.7136493
  44.2988553  50.9263833  43.2916493  34.2018553  49.6743833  39.1136493
  34.7538553  50.2433833  39.4776493  33.9698553  49.1593833  39.7786493
  34.2488553  49.6823833  39.2656493  38.4058553  48.6743833  46.2026493
  38.8728553  48.9633833  46.8806493  38.9778553  48.1963833  45.7486493
  38.5598553  48.6463833  46.2356493  46.8418553  40.6883833  43.9396493
  47.1858553  40.8403833  44.7266493  46.3888553  39.9503833  44.0526493
  46.8258553  40.6013833  44.0726493  34.9718553  46.3443833  44.7466493
  35.4028553  46.2153833  43.9996493  34.7668553  47.1923833  44.7206493
  35.0048553  46.4503833  44.6326493  41.3178553  39.9083833  38.3966493
  41.3158553  39.7913833  37.5316493  41.1368553  40.7563833  38.4886493
  41.2908553  40.0163833  38.2826493  50.3718553  52.3353833  49.8936493
  49.7008553  52.8493833  50.1116493  50.4348553  52.4353833  49.0296493
  50.2818553  52.4263833  49.7986493  39.0558553  49.8603833  43.0286493
  39.1818553  50.7033833  43.2156493  39.7238553  49.4613833  43.4246493
  39.1738553  49.9263833  43.1146493  37.1858553  43.3433833  52.8906493
  36.6498553  42.8373833  53.3586493  37.2058553  42.9533833  52.1106493
  37.1088553  43.2103833  52.8446493  37.6708553  42.7403833  38.0306493
  37.5428553  42.2923833  38.7686493  37.0888553  42.3983833  37.4786493
  37.5658553  42.6233833  38.0586493  37.8378553  44.5703833  44.6296493
  37.0568553  44.5113833  44.2466493  37.9098553  43.8183833  45.0666493
  37.7328553  44.4513833  44.6376493  38.2678553  44.3073833  48.0976493
  38.2928553  43.6323833  47.5466493  37.6218553  44.8033833  47.7856493
  38.1768553  44.2803833  47.9706493  48.1628553  42.0203833  46.4936493
  47.5008553  42.3483833  46.9566493  48.3498553  42.6543833  45.9246493
  48.0928553  42.1623833  46.4776493  42.3678553  53.0843833  47.4896493
  42.0908553  52.4433833  46.9666493  42.1598553  53.8103833  47.0516493
  42.2968553  53.0973833  47.3476493  44.8078553  37.9263833  49.9226493
  44.9568553  37.1013833  49.6796493  45.1868553  37.9813833  50.7066493
  44.8858553  37.8123833  50.0026493  46.3558553  39.9893833  40.0046493
  46.8458553  40.7063833  39.9276493  45.5658553  40.2503833  39.7416493
  46.3118553  40.1333833  39.9546493  36.0668553  45.6623833  53.6566493
  36.0298553  46.1633833  52.9426493  36.3978553  44.9103833  53.3616493
  36.1098553  45.6243833  53.5076493  47.6698553  47.8673833  51.9146493
  48.1538553  48.5853833  52.0126493  48.0638553  47.4403833  51.2636493
  47.7998553  47.9103833  51.8326493  41.9658553  50.7123833  53.0916493
  42.3198553  50.5343833  53.8686493  41.5298553  49.9833833  52.8926493
  41.9538553  50.5783833  53.1776493  42.9378553  41.4593833  45.7296493
  43.4178553  42.1583833  45.9376493  43.3108553  40.8123833  46.1806493
  43.0638553  41.4673833  45.8266493  45.1268553  44.6283833  38.0036493
  45.1188553  45.3503833  37.5136493  44.4878553  44.7633833  38.5806493
  45.0318553  44.7553833  38.0166493  50.0988553  48.4983833  41.9846493
  50.4548553  48.1483833  42.6996493  50.0908553  47.8373833  41.4146493
  50.1508553  48.3483833  42.0056493  46.1438553  51.5643833  45.8286493
  45.5408553  51.2683833  45.2716493  46.6888553  52.0163833  45.3196493
  46.1348553  51.5873833  45.6706493  46.1568553  48.4153833  45.2286493
  45.3598553  48.6393833  45.5026493  46.4148553  47.8213833  45.8136493
  46.0768553  48.3603833  45.3556493  40.0488553  53.2273833  39.6766493
  39.9018553  52.4513833  40.0476493  40.7378553  53.0803833  39.1616493
  40.1288553  53.0903833  39.6556493  39.7198553  36.9703833  37.6646493
  39.8168553  36.8633833  38.5256493  39.0118553  37.4763833  37.5996493
  39.6298553  37.0293833  37.7826493  42.3408553  52.7433833  38.0786493
  42.9628553  52.9063833  38.6686493  42.3768553  53.4343833  37.5466493
  42.4378553  52.8693833  38.0876493  49.4168553  46.4133833  50.0746493
  49.4718553  46.5383833  49.2126493  50.1698553  46.7333833  50.3766493
  49.5358553  46.4783833  49.9916493  45.6078553  51.7623833  54.3516493
  45.7718553  52.0453833  55.1606493  45.8708553  52.4233833  53.8466493
  45.6708553  51.9023833  54.3966493  50.4488553  36.7113833  53.0616493
  49.8118553  36.3113833  52.6196493  50.4748553  36.2803833  53.8196493
  50.3588553  36.5893833  53.1076493  36.8418553  45.2773833  38.9076493
  37.1658553  44.4983833  38.6856493  37.4878553  45.6453833  39.3626493
  36.9848553  45.2163833  38.9416493  45.1478553  46.2193833  49.6746493
  44.9928553  46.8293833  50.2786493  45.6818553  45.6613833  50.0806493
  45.2038553  46.2273833  49.8236493  43.5318553  44.6193833  40.3326493
  43.5908553  45.2693833  40.9116493  43.3428553  43.9233833  40.8236493
  43.5128553  44.6123833  40.4906493  48.7578553  48.9483833  46.2016493
  48.2788553  49.2463833  45.5356493  48.4018553  48.1723833  46.3796493
  48.6348553  48.8773833  46.1296493  38.0278553  39.1363833  36.8446493
  37.5168553  39.1893833  36.1386493  38.8118553  39.3763833  36.5486493
  38.0678553  39.1793833  36.6966493  42.7548553  46.6663833  44.7636493
  41.9078553  46.4723833  44.8446493  43.0788553  46.5013833  45.5566493
  42.6768553  46.6133833  44.8926493  39.5068553  53.3963833  35.6496493
  39.9458553  52.6993833  35.9376493  39.7138553  54.0203833  36.2226493
  39.6028553  53.3853833  35.7766493  36.6028553  46.3593833  47.0796493
  37.3248553  46.8473833  47.0426493  36.3328553  46.3293833  46.2506493
  36.6698553  46.4273833  46.9516493  39.8328553  41.5303833  43.8146493
  40.6788553  41.3403833  43.9126493  39.4628553  40.7533833  43.6766493
  39.9028553  41.3873833  43.8086493  52.4498553  53.1143833  38.1416493
  53.1438553  52.6473833  37.8936493  51.9108553  52.5163833  38.4786493
  52.4728553  52.9563833  38.1546493  34.6538553  42.8683833  40.4696493
  35.1428553  42.5763833  41.1306493  34.7828553  42.2753833  39.8426493
  34.7448553  42.7373833  40.4746493  49.6888553  45.8903833  47.3206493
  49.6818553  45.1143833  47.7186493  48.8478553  46.1243833  47.3136493
  49.5638553  45.8103833  47.3786493  39.1788553  44.3023833  35.9556493
  38.5688553  43.8973833  36.4296493  38.7928553  44.4203833  35.1826493
  39.0318553  44.2593833  35.9116493  35.9978553  47.4113833  51.3576493
  35.5768553  46.8933833  50.7966493  35.6458553  48.1973833  51.2146493
  35.8838553  47.4513833  51.2536493  50.9448553  45.9613833  44.7576493
  50.6588553  46.3623833  45.4776493  51.8048553  45.8993833  44.8846493
  51.0298553  46.0113833  44.8826493  40.6338553  42.7633833  38.6656493
  40.9058553  43.5893833  38.7326493  39.7708553  42.8383833  38.5696493
  40.5468553  42.8963833  38.6606493  48.6068553  39.8853833  53.2976493
  48.0818553  40.3443833  53.8216493  48.2458553  39.0903833  53.2916493
  48.4758553  39.8353833  53.3736493  52.0758553  51.5943833  45.2866493
  52.3658553  51.8513833  44.5056493  52.7708553  51.6903833  45.8056493
  52.2218553  51.6463833  45.2476493  47.0988553  43.4543833  53.3736493
  47.1718553  43.5583833  54.2366493  46.4648553  44.0123833  53.1526493
  47.0158553  43.5523833  53.4686493  48.6808553  50.1973833  37.2686493
  49.0148553  49.3913833  37.3036493  47.9258553  50.1253833  37.6986493
  48.6188553  50.0673833  37.3376493  49.1628553  42.0313833  42.9276493
  48.4178553  41.7083833  43.2456493  49.1648553  42.8573833  43.2076493
  49.0528553  42.1053833  43.0156493  52.0648553  44.3153833  54.4736493
  52.0128553  43.9743833  53.6726493  52.8018553  44.7823833  54.4516493
  52.1658553  44.3343833  54.3516493  51.6028553  47.9913833  50.6796493
  52.2308553  47.4423833  50.4236493  51.5418553  48.5563833  50.0176493
  51.6868553  47.9943833  50.5436493  46.0548553  48.0723833  36.6716493
  46.7388553  47.5583833  36.5026493  45.6378553  48.1183833  35.9066493
  46.0938553  48.0033833  36.5336493  40.7368553  49.2223833  47.9756493
  40.4388553  49.8143833  48.5426493  40.7918553  49.6643833  47.2266493
  40.7008553  49.3753833  47.9486493  38.7158553  48.1723833  51.3736493
  37.9098553  47.8823833  51.5406493  38.6268553  49.0403833  51.3796493
  38.5838553  48.2573833  51.3986493  48.0748553  38.3613833  50.3886493
  48.8188553  38.8133833  50.3256493  47.5088553  38.8313833  49.9196493
  48.1018553  38.4983833  50.3106493  43.2528553  45.6453833  47.4666493
  43.7288553  46.0193833  48.0946493  42.4298553  45.7793833  47.7256493
  43.2018553  45.7203833  47.5976493  39.9628553  41.2483833  50.2076493
  40.1238553  40.5043833  50.6346493  39.9178553  40.9993833  49.3726493
  39.9798553  41.1013833  50.1476493  42.5168553  53.0383833  42.6946493
  43.0628553  53.7173833  42.7486493  42.1668553  53.1203833  41.8996493
  42.5458553  53.1513833  42.5846493  49.3598553  36.3413833  48.0586493
  49.0798553  37.1663833  48.0146493  50.0758553  36.3943833  48.5546493
  49.4248553  36.4713833  48.1256493  41.7148553  37.0563833  50.0876493
  42.4198553  37.3763833  49.6856493  41.9558553  36.2493833  50.3146493
  41.8538553  36.9843833  50.0616493  40.6998553  51.2663833  46.0836493
  40.0758553  51.8483833  45.9016493  40.9478553  50.9803833  45.2976493
  40.6438553  51.3103833  45.9406493  45.0088553  47.9003833  53.0726493
  45.7658553  48.1863833  52.7466493  44.4618553  47.9523833  52.3946493
  45.0398553  47.9503833  52.9236493  48.9178553  50.4503833  51.5766493
  49.2638553  50.7203833  52.3306493  49.2118553  51.0323833  50.9966493
  49.0128553  50.5763833  51.6026493  50.7808553  42.5963833  36.9156493
  51.1588553  43.2733833  36.5156493  49.9388553  42.8203833  36.9466493
  50.7118553  42.7293833  36.8606493  42.2938553  46.0423833  35.9986493
  41.4888553  45.8653833  35.7136493  42.2608553  46.8933833  36.1906493
  42.1698553  46.1413833  35.9856493  38.2238553  42.1093833  46.1486493
  38.6638553  42.0063833  45.4026493  38.7688553  41.7963833  46.7536493
  38.3688553  42.0483833  46.1276493  46.2398553  41.2113833  51.7406493
  45.5918553  41.6813833  52.0886493  46.8048553  41.1223833  52.3996493
  46.2278553  41.2673833  51.8896493  45.9278553  42.7483833  48.0386493
  46.2298553  43.1683833  48.7416493  45.9638553  41.9083833  48.2706493
  45.9778553  42.6863833  48.1766493  43.3528553  52.9153833  51.9636493
  43.8308553  52.3153833  51.5476493  43.0018553  52.4723833  52.6286493
  43.3718553  52.7613833  52.0006493  48.4758553  42.1953833  40.2906493
  48.6828553  41.9943833  41.1146493  49.2318553  42.4633833  39.9486493
  48.6178553  42.2053833  40.3616493  41.7708553  37.0943833  46.1956493
  40.9448553  36.9453833  46.4326493  41.7308553  37.1293833  45.3246493
  41.6428553  37.0773833  46.1016493  49.4978553  38.2783833  41.7646493
  48.7838553  37.8073833  41.9356493  49.3358553  38.6193833  40.9786493
  49.3688553  38.2593833  41.6736493  49.9408553  46.2223833  40.1446493
  50.4168553  45.4933833  40.0966493  49.1198553  45.9363833  40.0686493
  49.8898553  46.0723833  40.1256493  39.2418553  54.3413833  46.3006493
  39.2528553  54.4003833  47.1706493  38.8168553  53.5943833  46.1506493
  39.1808553  54.2393833  46.4066493  37.3998553  40.2363833  39.4556493
  37.5258553  39.9073833  38.6576493  36.5878553  39.9873833  39.6546493
  37.2988553  40.1513833  39.3676493  46.1568553  47.3893833  42.4996493
  46.2328553  47.7303833  43.2986493  46.3258553  46.5423833  42.6206493
  46.1928553  47.3143833  42.6356493  43.6788553  46.6633833  42.0646493
  43.3808553  46.3483833  42.8216493  44.3738553  47.1363833  42.2996493
  43.7378553  46.6863833  42.2116493  43.9008553  50.7813833  50.0916493
  44.5878553  50.6673833  50.6166493  44.0348553  51.5723833  49.7476493
  44.0218553  50.8813833  50.1186493  52.0768553  43.3903833  51.9026493
  51.2218553  43.2683833  52.0286493  52.2298553  42.9953833  51.1396493
  51.9728553  43.3133833  51.8086493  46.5898553  44.0553833  50.4786493
  46.3348553  43.3363833  50.9006493  47.4108553  44.1713833  50.7486493
  46.6738553  43.9663833  50.5806493  36.0058553  53.8393833  51.7426493
  35.3518553  53.2703833  51.8406493  35.6308553  54.6123833  51.8936493
  35.8538553  53.8693833  51.7796493  44.5238553  45.2453833  53.6656493
  44.8468553  45.9313833  53.2336493  43.8198553  45.5683833  54.0676493
  44.4668553  45.3943833  53.6606493  47.6078553  53.6193833  44.5946493
  47.1568553  54.2623833  44.9736493  48.3158553  53.5403833  45.0996493
  47.6458553  53.7023833  44.7256493  44.3088553  48.7093833  47.5246493
  43.6148553  49.1113833  47.8676493  44.9858553  49.1423833  47.8636493
  44.3058553  48.8323833  47.6256493  49.6858553  51.3023833  54.1046493
  50.4618553  50.9123833  54.1876493  49.2168553  50.9663833  54.7596493
  49.7308553  51.1953833  54.2136493  37.3768553  42.2473833  49.8716493
  37.7518553  42.8663833  49.3846493  38.0508553  41.7733833  50.1566493
  37.5318553  42.2693833  49.8416493  35.1518553  40.6953833  49.1466493
  35.2288553  40.5263833  48.2936493  35.8978553  41.1013833  49.3436493
  35.2728553  40.7303833  49.0496493  50.7108553  43.3353833  39.5866493
  50.8138553  43.2773833  38.7226493  51.4518553  43.0033833  39.9046493
  50.8358553  43.2783833  39.5056493  44.6308553  50.3003833  40.6936493
  44.4258553  51.1333833  40.5346493  43.8558553  49.9183833  40.8156493
  44.4858553  50.3673833  40.6886493  49.8128553  43.4813833  48.9426493
  49.8108553  42.6183833  49.0666493  49.8798553  43.8053833  49.7496493
  49.8228553  43.4013833  49.0796493  34.5488553  45.9213833  49.3706493
  34.8688553  46.1403833  48.5896493  34.4488553  45.0563833  49.3156493
  34.5808553  45.8263833  49.2476493  36.0048553  41.8573833  35.9886493
  35.3328553  41.8713833  36.5446493  36.0998553  41.0093833  35.8046493
  35.9198553  41.7343833  36.0436493  45.6918553  38.2813833  52.7246493
  45.7838553  38.9933833  53.2186493  45.0548553  37.8363833  53.1216493
  45.6108553  38.3203833  52.8566493  44.6858553  38.4713833  43.5786493
  43.9858553  38.9893833  43.5226493  44.7238553  38.0913833  42.7946493
  44.5878553  38.4923833  43.4546493  39.9928553  50.5623833  37.1026493
  40.4338553  50.6423833  37.8506493  39.1878553  50.3463833  37.3606493
  39.9388553  50.5423833  37.2516493  48.2838553  38.9873833  46.3786493
  49.1388553  39.0863833  46.5236493  47.9148553  39.5403833  46.9436493
  48.3558553  39.0843833  46.4836493  39.3118553  45.2133833  50.7556493
  38.9158553  45.9873833  50.8306493  38.9058553  44.8403833  50.0796493
  39.1938553  45.2723833  50.6666493  48.5878553  44.2673833  44.8696493
  49.2538553  44.8083833  45.0296493  48.2428553  44.5783833  44.1306493
  48.6348553  44.3933833  44.7846493  48.9008553  52.3333833  40.6766493
  48.7268553  51.6793833  41.2266493  49.6138553  52.0623833  40.2536493
  48.9808553  52.1963833  40.6956493  37.3218553  49.6323833  37.7036493
  37.0778553  49.3253833  38.4836493  37.2888553  48.9293833  37.1876493
  37.2808553  49.4833833  37.7426493  40.1408553  47.8773833  36.4466493
  39.3228553  47.6093833  36.5866493  40.1128553  48.7293833  36.6316493
  40.0158553  47.9643833  36.4946493  39.7408553  38.1903833  48.2056493
  38.8768553  38.2743833  48.2856493  39.9608553  37.6763833  48.8746493
  39.6458553  38.1273833  48.3166493  51.7588553  36.8253833  49.5346493
  51.7068553  36.7813833  50.4046493  52.4458553  36.3223833  49.3446493
  51.8528553  36.7453833  49.6346493  43.8438553  38.9383833  46.5796493
  43.1068553  38.4843833  46.6926493  44.4148553  38.5363833  47.1026493
  43.8188553  38.8113833  46.6736493  46.5758553  49.7863833  48.3676493
  46.7818553  50.0873833  49.1596493  46.5148553  50.5083833  47.8826493
  46.5968553  49.9373833  48.4126493  46.1098553  54.0003833  52.6136493
  45.3568553  53.9823833  52.1726493  46.2778553  54.8523833  52.6976493
  46.0238553  54.1233833  52.5606493  41.3468553  43.2673833  51.7836493
  41.0248553  42.6913833  51.2136493  40.9878553  44.0223833  51.5376493
  41.2468553  43.2933833  51.6636493  42.1428553  36.5193833  36.4106493
  42.2208553  36.7663833  35.5776493  41.3998553  36.8963833  36.6686493
  42.0448553  36.6113833  36.3256493  51.3878553  48.4253833  47.8256493
  51.3558553  47.5633833  47.6906493  50.6948553  48.7273833  47.3916493
  51.2808553  48.3423833  47.7416493  39.7818553  53.6233833  52.0316493
  39.8228553  53.7493833  52.8946493  40.4328553  53.0633833  51.8756493
  39.8838553  53.5593833  52.1366493  49.4928553  51.6853833  46.6226493
  50.0198553  51.6023833  45.9316493  49.1018553  50.9073833  46.6766493
  49.5128553  51.5583833  46.5286493  46.0068553  37.1293833  45.8306493
  46.6768553  37.6733833  45.9576493  45.5038553  37.5533833  45.2576493
  46.0318553  37.2723833  45.7646493  37.3748553  52.0063833  53.3916493
  37.9698553  52.4373833  53.8636493  37.0108553  52.6303833  52.9026493
  37.4088553  52.1623833  53.3886493  45.3658553  42.9373833  43.3236493
  45.9168553  42.3303833  43.6236493  44.9408553  43.2003833  44.0386493
  45.3848553  42.8863833  43.4726493  35.6138553  41.5873833  42.8096493
  35.2458553  41.8893833  43.5406493  36.1478553  40.9583833  43.0936493
  35.6378553  41.5393833  42.9596493  35.3018553  49.9953833  50.3206493
  34.7278553  50.4113833  50.8296493  36.0348553  50.4603833  50.4156493
  35.3258553  50.1253833  50.4096493  47.3358553  44.7683833  39.8856493
  47.4038553  43.9183833  40.0666493  46.5128553  44.8543833  39.6076493
  47.2238553  44.6553833  39.8716493  37.0878553  53.2623833  39.0956493
  36.9428553  53.4183833  38.2496493  37.9538553  53.3413833  39.1736493
  37.1948553  53.2973833  38.9826493  41.2548553  45.6593833  38.8236493
  41.3548553  45.7983833  37.9686493  42.0728553  45.5993833  39.1196493
  41.3898553  45.6703833  38.7406493  50.4148553  53.7233833  36.3036493
  51.0518553  53.5893833  36.8846493  50.0738553  52.9293833  36.1866493
  50.4588553  53.5863833  36.3716493  50.6098553  46.1413833  53.0366493
  51.2438553  45.9713833  53.6106493  51.0268553  46.5443833  52.3846493
  50.7648553  46.1763833  53.0256493  46.4898553  49.9883833  38.6256493
  46.2388553  49.8603833  39.4516493  46.1728553  49.2933833  38.2046493
  46.4058553  49.8673833  38.6856493  51.2348553  40.7053833  53.7746493
  51.0388553  41.3493833  54.3296493  50.5128553  40.2153833  53.7666493
  51.0998553  40.7283833  53.8556493  51.1338553  41.6463833  46.7456493
  50.3008553  41.8963833  46.6736493  51.0778553  40.8063833  46.9746493
  51.0028553  41.5593833  46.7686493  48.0208553  46.2523833  54.3916493
  48.8918553  46.2163833  54.3556493  47.8018553  46.6723833  53.6596493
  48.1178553  46.3083833  54.2786493  37.7748553  52.0773833  45.5726493
  37.6958553  51.2673833  45.2566493  37.3308553  52.5643833  45.0006493
  37.6978553  52.0293833  45.4416493  43.3758553  48.1963833  38.0556493
  44.0928553  47.8493833  37.6996493  43.3418553  48.9963833  37.7076493
  43.4768553  48.2633833  37.9516493  35.3468553  54.3213833  49.1536493
  35.8398553  54.2653833  49.8716493  35.5348553  53.5883833  48.7186493
  35.4478553  54.2043833  49.1956493  44.7848553  36.8373833  22.2944083
  44.5398553  37.3253833  21.6144083  45.6478553  36.7643833  22.1944083
  44.8758553  36.8983833  22.1794083  44.5938553  43.7533833  26.9654083
  44.0698553  44.3493833  27.3284083  44.9908553  43.3853833  27.6494083
  44.5748553  43.7873833  27.1204083  34.4628553  47.8933833  22.4214083
  34.0218553  48.0113833  23.1644083  34.1798553  47.1183833  22.1364083
  34.3558553  47.7963833  22.4894083  50.7378553  51.1943833  19.9364083
  51.4388553  50.6753833  19.9324083  50.1508553  50.7493833  19.4674083
  50.7548553  51.0513833  19.8664083  34.2058553  41.6853833  18.9284083
  33.4278553  41.8473833  18.5684083  34.2448553  40.8143833  18.9504083
  34.0968553  41.5803833  18.8784083  37.3448553  46.9483833  17.6004083
  36.9528553  46.5773833  16.9144083  37.2648553  46.3503833  18.2294083
  37.2748553  46.8053833  17.5914083  47.2648553  44.8203833  23.6414083
  47.3448553  44.8243833  22.7724083  46.6808553  44.1883833  23.7904083
  47.1898553  44.7273833  23.5354083  36.9718553  48.5893833  21.5004083
  37.5798553  48.4193833  22.1034083  36.2208553  48.4493833  21.9214083
  36.9508553  48.5433833  21.6514083  41.2538553  37.9243833  21.4494083
  41.1838553  38.6013833  20.9034083  41.9948553  37.5363833  21.2004083
  41.3528553  37.9673833  21.3314083  35.8628553  51.6803833  17.5774083
  36.3298553  51.7643833  16.8454083  36.3178553  51.1023833  18.0464083
  35.9988553  51.6073833  17.5384083  34.4028553  50.6283833  28.6764083
  34.5318553  50.3483833  29.4924083  33.7928553  50.0873833  28.3674083
  34.3318553  50.5073833  28.7514083  40.9768553  48.1533833  33.7434083
  40.7408553  48.1503833  34.5834083  40.2288553  48.0053833  33.3194083
  40.8308553  48.1303833  33.8044083  35.8488553  45.1493833  22.8784083
  35.3868553  44.7573833  22.2514083  36.5488553  44.6363833  22.9704083
  35.8838553  45.0163833  22.7994083  40.3568553  40.7593833  28.2254083
  41.0348553  40.7773833  27.6764083  40.3118553  39.9233833  28.4704083
  40.4498553  40.6383833  28.1804083  40.9588553  51.3453833  31.0064083
  41.0968553  52.1053833  30.5994083  41.7498553  50.9803833  31.0334083
  41.0958553  51.4043833  30.9504083  37.8498553  43.2493833  22.9014083
  38.6668553  43.0623833  23.1444083  37.3728553  42.6353833  23.2974083
  37.8998553  43.1313833  22.9964083  42.0538553  49.2303833  25.5114083
  42.4018553  48.4313833  25.5414083  42.7188553  49.7343833  25.2564083
  42.2038553  49.1863833  25.4784083  42.1108553  48.6793833  21.7224083
  42.4418553  48.0353833  22.2084083  42.3508553  48.4683833  20.9114083
  42.1948553  48.5533833  21.6744083  44.0788553  42.8103833  33.0614083
  43.2308553  42.7113833  32.8834083  44.1078553  43.5553833  33.5154083
  43.9578553  42.9063833  33.1024083  38.4468553  38.3433833  22.1674083
  38.1508553  38.8443833  21.5174083  39.3138553  38.4213833  22.1104083
  38.5308553  38.4293833  22.0634083  48.6368553  35.7703833  32.1754083
  48.4788553  36.5393833  31.7934083  47.8648553  35.5503833  32.5194083
  48.4988553  35.8513833  32.1704083  41.4258553  37.4853833  24.3904083
  41.4988553  38.3453833  24.5194083  41.3878553  37.4103833  23.5224083
  41.4308553  37.6013833  24.2814083  46.0988553  40.4113833  16.6894083
  45.6488553  41.0923833  16.9964083  46.2128553  39.9073833  17.3924083
  46.0498553  40.4373833  16.8384083  34.3048553  42.9103833  25.8914083
  34.0488553  43.7413833  25.8164083  33.6408553  42.5273833  26.3084083
  34.1688553  42.9763833  25.9424083  34.2148553  52.6203833  23.7914083
  33.6228553  53.1783833  23.4784083  34.6408553  52.3513833  23.0794083
  34.1908553  52.6623833  23.6404083  40.0548553  50.4643833  21.2714083
  39.4758553  50.1893833  21.8634083  40.6788553  49.8553833  21.2964083
  40.0618553  50.3343833  21.3624083  46.1978553  52.7523833  18.7934083
  46.9248553  53.2243833  18.8954083  46.4268553  51.9583833  19.0734083
  46.3398553  52.7053833  18.8504083  44.3658553  53.1443833  20.7834083
  44.5798553  53.6713833  21.4454083  45.1328553  52.9703833  20.4044083
  44.5108553  53.1963833  20.8254083  37.3338553  37.7273833  26.3824083
  36.8128553  37.0993833  26.0744083  37.9248553  37.2903833  26.8534083
  37.3448553  37.5693833  26.4064083  40.6398553  39.8603833  35.6804083
  40.7568553  39.4063833  34.9444083  40.9278553  40.6583833  35.4774083
  40.6998553  39.9113833  35.5414083  35.7598553  51.2903833  21.7224083
  36.4158553  50.7153833  21.7374083  36.1488553  52.0393833  21.5014083
  35.9148553  51.3153833  21.6924083  51.4928553  40.3843833  22.9844083
  51.1468553  41.0623833  23.4104083  50.8568553  39.7863833  23.0004083
  51.3478553  40.3963833  23.0494083  46.8048553  53.1543833  29.0884083
  47.5488553  53.6103833  29.0784083  46.6838553  52.9403833  28.2514083
  46.8968553  53.1903833  28.9634083  36.3728553  39.4573833  34.6644083
  35.5948553  39.0673833  34.5924083  36.8638553  39.0453833  34.0734083
  36.3298553  39.3383833  34.5664083  36.5778553  49.7773833  25.2224083
  37.0008553  49.4213833  24.5484083  36.9018553  49.3553833  25.9144083
  36.6878553  49.6623833  25.2254083  39.8088553  52.6293833  24.5184083
  40.6528553  52.7333833  24.3234083  39.5118553  53.4473833  24.5864083
  39.8898553  52.7653833  24.4994083  43.0218553  37.1003833  33.8324083
  43.1998553  36.2913833  33.5574083  42.8788553  37.5413833  33.0934083
  43.0268553  37.0463833  33.6824083  43.6158553  42.0263833  22.6054083
  43.9028553  41.7943833  21.8154083  44.3478553  42.1053833  23.0744083
  43.7658553  42.0033833  22.5584083  44.3378553  42.3653833  17.7264083
  44.6188553  43.1533833  17.9754083  43.5618553  42.5303833  17.3634083
  44.2648553  42.5063833  17.7094083  48.3788553  54.3393833  19.1934083
  49.0438553  54.1913833  18.6484083  48.7388553  54.2563833  19.9834083
  48.5308553  54.3053833  19.2294083  38.8068553  53.8483833  30.2584083
  39.0988553  53.7813833  31.0784083  38.1808553  53.2433833  30.2134083
  38.7578553  53.7493833  30.3734083  51.1678553  38.7073833  28.3534083
  51.9248553  38.7793833  27.9254083  51.2308553  37.9343833  28.7524083
  51.2888553  38.6043833  28.3484083  33.7208553  40.0053833  32.2504083
  33.7168553  40.5923833  32.8964083  34.3148553  40.3173833  31.6934083
  33.8078553  40.1383833  32.2634083  46.0588553  50.3393833  32.7924083
  46.0248553  50.7213833  33.5764083  46.9128553  50.2973833  32.6214083
  46.1798553  50.3893833  32.8834083  43.1968553  50.5363833  17.5424083
  43.0158553  51.0813833  18.1994083  43.9628553  50.8263833  17.2414083
  43.2828553  50.6603833  17.5954083  46.7038553  38.4323833  18.5964083
  47.2438553  37.7503833  18.6724083  46.7658553  38.8303833  19.3704083
  46.7928553  38.3903833  18.7224083  34.6578553  39.6003833  21.1654083
  34.5438553  38.7363833  21.1964083  34.1828553  39.8943833  21.8354083
  34.5708553  39.5163833  21.2684083  36.7998553  52.0103833  29.3804083
  36.1018553  51.5023833  29.5064083  37.0598553  51.8053833  28.5724083
  36.7348553  51.9053833  29.2794083  43.9618553  40.8083833  19.9104083
  43.4538553  40.1463833  19.6564083  44.0138553  41.3123833  19.2004083
  43.8948553  40.7853833  19.7684083  44.5108553  53.5033833  30.2904083
  45.2788553  53.4233833  29.8844083  43.9278553  53.3823833  29.6524083
  44.5378553  53.4733833  30.1364083  43.9618553  37.7493833  19.8014083
  43.5068553  37.3473833  19.1754083  44.7348553  37.9043833  19.4264083
  44.0088553  37.7133833  19.6534083  50.7878553  54.1063833  23.1914083
  50.3328553  54.8233833  23.3924083  50.1738553  53.5353833  22.9494083
  50.6298553  54.1283833  23.1854083  42.5598553  40.1163833  24.3234083
  42.6338553  40.6843833  23.6654083  42.6808553  40.6083833  25.0334083
  42.5878553  40.2733833  24.3314083  47.7848553  49.9513833  22.7354083
  48.4858553  49.4693833  22.9244083  47.1248553  49.3823833  22.7804083
  47.7908553  49.7963833  22.7694083  38.1608553  50.8613833  31.9474083
  39.0018553  50.9243833  31.7254083  38.1238553  51.2583833  32.7234083
  38.2798553  50.9293833  32.0294083  37.1678553  35.9393833  22.6714083
  37.7038553  36.6273833  22.6614083  37.1708553  35.6653833  21.8434083
  37.2468553  36.0003833  22.5474083  40.1238553  46.3723833  26.6964083
  40.2958553  46.1623833  27.5254083  39.4688553  45.8383833  26.4804083
  40.0528553  46.2623833  26.7874083  46.3518553  40.2863833  30.2114083
  46.2568553  40.6053833  31.0174083  45.7588553  39.6473833  30.1734083
  46.2498553  40.2383833  30.3254083  40.8738553  46.3103833  29.2864083
  40.9268553  47.1573833  29.4884083  40.5888553  45.9403833  30.0234083
  40.8398553  46.3803833  29.4244083  47.0508553  47.0053833  28.4164083
  46.5368553  46.5933833  28.9874083  46.9248553  47.8493833  28.5974083
  46.9568553  47.0693833  28.5274083  47.6078553  36.2303833  23.0474083
  47.6568553  35.9123833  23.8584083  47.9308553  35.5863833  22.5544083
  47.6628553  36.0883833  23.0944083  33.6948553  50.6813833  35.4974083
  34.4508553  51.0303833  35.7554083  33.8718553  49.8283833  35.4404083
  33.8328553  50.6063833  35.5274083  50.0718553  40.4663833  31.3554083
  50.8438553  40.2413833  31.6924083  49.5968553  40.6833833  32.0554083
  50.1158553  40.4653833  31.5084083  37.6158553  39.7493833  24.3254083
  37.8878553  39.3193833  23.6174083  37.4398553  39.1133833  24.8964083
  37.6298553  39.5923833  24.3054083  50.3038553  47.4443833  18.5434083
  50.4228553  47.1573833  19.3584083  51.1108553  47.4653833  18.2134083
  50.4398553  47.4053833  18.6154083  37.4398553  47.1763833  23.8744083
  38.2908553  47.0963833  23.7014083  37.0828553  46.4943833  23.4624083
  37.5128553  47.0633833  23.7874083  36.2068553  53.9013833  25.1114083
  35.5338553  53.4033833  24.8664083  36.6098553  54.0863833  24.3604083
  36.1668553  53.8553833  24.9644083  35.7568553  40.8513833  27.4074083
  36.5998553  41.0713833  27.3644083  35.3678553  41.4243833  26.8764083
  35.8238553  40.9683833  27.3224083  52.5378553  51.9533833  32.7974083
  51.8558553  52.2633833  32.3504083  52.1688553  51.4953833  33.4424083
  52.3818553  51.9313833  32.8264083  48.1988553  43.9813833  18.1284083
  47.9788553  44.7123833  17.7064083  47.7508553  44.0323833  18.8754083
  48.0998553  44.0963833  18.1764083  39.8078553  47.1833833  22.1094083
  40.5208553  47.6783833  22.1994083  40.0298553  46.6163833  21.4834083
  39.9458553  47.1723833  22.0304083  52.3858553  38.8423833  17.5814083
  51.7238553  38.2743833  17.6044083  52.1928553  39.3543833  16.9014083
  52.2598553  38.8343833  17.4844083  33.9638553  48.8263833  25.4294083
  33.2968553  49.3143833  25.7054083  34.6438553  49.3713833  25.4584083
  33.9658553  48.9783833  25.4744083  41.6108553  42.5363833  35.5254083
  41.1268553  43.1133833  35.9674083  41.5828553  42.8313833  34.7044083
  41.5348553  42.6653833  35.4694083  52.7088553  43.2203833  30.1374083
  52.9238553  42.4203833  29.8614083  51.8588553  43.2803833  29.9484083
  52.6148553  43.1113833  30.0684083  34.0298553  45.5103833  20.5324083
  33.8448553  44.6713833  20.6844083  34.6888553  45.4743833  19.9624083
  34.0998553  45.3813833  20.4704083  50.3878553  38.4003833  19.8604083
  51.1338553  37.9933833  20.0594083  50.6508553  39.1153833  19.4354083
  50.5368553  38.4463833  19.8274083  44.3308553  50.8863833  24.4364083
  43.8078553  51.5203833  24.1434083  44.6408553  50.5223833  23.7074083
  44.2988553  50.9263833  24.2854083  34.2018553  49.6743833  20.1074083
  34.7538553  50.2433833  20.4714083  33.9698553  49.1593833  20.7724083
  34.2488553  49.6823833  20.2594083  38.4058553  48.6743833  27.1964083
  38.8728553  48.9633833  27.8744083  38.9778553  48.1963833  26.7424083
  38.5598553  48.6463833  27.2294083  46.8418553  40.6883833  24.9334083
  47.1858553  40.8403833  25.7204083  46.3888553  39.9503833  25.0464083
  46.8258553  40.6013833  25.0664083  34.0318553  48.1233833  17.7354083
  34.7878553  47.6913833  17.7934083  34.0468553  48.6553833  18.4264083
  34.1458553  48.1383833  17.8464083  34.9718553  46.3443833  25.7404083
  35.4028553  46.2153833  24.9934083  34.7668553  47.1923833  25.7144083
  35.0048553  46.4503833  25.6264083  41.3178553  39.9083833  19.3904083
  41.3158553  39.7913833  18.5254083  41.1368553  40.7563833  19.4824083
  41.2908553  40.0163833  19.2764083  50.3718553  52.3353833  30.8874083
  49.7008553  52.8493833  31.1054083  50.4348553  52.4353833  30.0234083
  50.2818553  52.4263833  30.7924083  39.0558553  49.8603833  24.0224083
  39.1818553  50.7033833  24.2094083  39.7238553  49.4613833  24.4184083
  39.1738553  49.9263833  24.1084083  37.1858553  43.3433833  33.8844083
  36.6498553  42.8373833  34.3524083  37.2058553  42.9533833  33.1044083
  37.1088553  43.2103833  33.8384083  37.6708553  42.7403833  19.0244083
  37.5428553  42.2923833  19.7624083  37.0888553  42.3983833  18.4724083
  37.5658553  42.6233833  19.0524083  37.8378553  44.5703833  25.6234083
  37.0568553  44.5113833  25.2404083  37.9098553  43.8183833  26.0604083
  37.7328553  44.4513833  25.6314083  48.1628553  42.0203833  27.4874083
  47.5008553  42.3483833  27.9504083  48.3498553  42.6543833  26.9184083
  48.0928553  42.1623833  27.4714083  42.3678553  53.0843833  28.4834083
  42.0908553  52.4433833  27.9604083  42.1598553  53.8103833  28.0454083
  42.2968553  53.0973833  28.3414083  44.8078553  37.9263833  30.9164083
  44.9568553  37.1013833  30.6734083  45.1868553  37.9813833  31.7004083
  44.8858553  37.8123833  30.9964083  46.3558553  39.9893833  20.9984083
  46.8458553  40.7063833  20.9214083  45.5658553  40.2503833  20.7354083
  46.3118553  40.1333833  20.9484083  36.0668553  45.6623833  34.6504083
  36.0298553  46.1633833  33.9364083  36.3978553  44.9103833  34.3554083
  36.1098553  45.6243833  34.5014083  47.6698553  47.8673833  32.9084083
  48.1538553  48.5853833  33.0064083  48.0638553  47.4403833  32.2574083
  47.7998553  47.9103833  32.8264083  41.9658553  50.7123833  34.0854083
  42.3198553  50.5343833  34.8624083  41.5298553  49.9833833  33.8864083
  41.9538553  50.5783833  34.1714083  42.9378553  41.4593833  26.7234083
  43.4178553  42.1583833  26.9314083  43.3108553  40.8123833  27.1744083
  43.0638553  41.4673833  26.8204083  45.1268553  44.6283833  18.9974083
  45.1188553  45.3503833  18.5074083  44.4878553  44.7633833  19.5744083
  45.0318553  44.7553833  19.0104083  50.0988553  48.4983833  22.9784083
  50.4548553  48.1483833  23.6934083  50.0908553  47.8373833  22.4084083
  50.1508553  48.3483833  22.9994083  46.1438553  51.5643833  26.8224083
  45.5408553  51.2683833  26.2654083  46.6888553  52.0163833  26.3134083
  46.1348553  51.5873833  26.6644083  46.1568553  48.4153833  26.2224083
  45.3598553  48.6393833  26.4964083  46.4148553  47.8213833  26.8074083
  46.0768553  48.3603833  26.3494083  40.0488553  53.2273833  20.6704083
  39.9018553  52.4513833  21.0414083  40.7378553  53.0803833  20.1554083
  40.1288553  53.0903833  20.6494083  39.7198553  36.9703833  18.6584083
  39.8168553  36.8633833  19.5194083  39.0118553  37.4763833  18.5934083
  39.6298553  37.0293833  18.7764083  42.3408553  52.7433833  19.0724083
  42.9628553  52.9063833  19.6624083  42.3768553  53.4343833  18.5404083
  42.4378553  52.8693833  19.0814083  49.4168553  46.4133833  31.0684083
  49.4718553  46.5383833  30.2064083  50.1698553  46.7333833  31.3704083
  49.5358553  46.4783833  30.9854083  45.6078553  51.7623833  35.3454083
  45.7718553  52.0453833  36.1544083  45.8708553  52.4233833  34.8404083
  45.6708553  51.9023833  35.3904083  50.4488553  36.7113833  34.0554083
  49.8118553  36.3113833  33.6134083  50.4748553  36.2803833  34.8134083
  50.3588553  36.5893833  34.1014083  36.8418553  45.2773833  19.9014083
  37.1658553  44.4983833  19.6794083  37.4878553  45.6453833  20.3564083
  36.9848553  45.2163833  19.9354083  45.1478553  46.2193833  30.6684083
  44.9928553  46.8293833  31.2724083  45.6818553  45.6613833  31.0744083
  45.2038553  46.2273833  30.8174083  33.8388553  36.9383833  20.8694083
  33.9678553  36.2303833  20.3774083  33.4718553  36.6203833  21.5944083
  33.8038553  36.7863833  20.9044083  43.5318553  44.6193833  21.3264083
  43.5908553  45.2693833  21.9054083  43.3428553  43.9233833  21.8174083
  43.5128553  44.6123833  21.4844083  48.7578553  48.9483833  27.1954083
  48.2788553  49.2463833  26.5294083  48.4018553  48.1723833  27.3734083
  48.6348553  48.8773833  27.1234083  38.0278553  39.1363833  17.8384083
  37.5168553  39.1893833  17.1324083  38.8118553  39.3763833  17.5424083
  38.0678553  39.1793833  17.6904083  42.7548553  46.6663833  25.7574083
  41.9078553  46.4723833  25.8384083  43.0788553  46.5013833  26.5504083
  42.6768553  46.6133833  25.8864083  39.5068553  53.3963833  16.6434083
  39.9458553  52.6993833  16.9314083  39.7138553  54.0203833  17.2164083
  39.6028553  53.3853833  16.7704083  36.6028553  46.3593833  28.0734083
  37.3248553  46.8473833  28.0364083  36.3328553  46.3293833  27.2444083
  36.6698553  46.4273833  27.9454083  39.8328553  41.5303833  24.8084083
  40.6788553  41.3403833  24.9064083  39.4628553  40.7533833  24.6704083
  39.9028553  41.3873833  24.8024083  52.4498553  53.1143833  19.1354083
  53.1438553  52.6473833  18.8874083  51.9108553  52.5163833  19.4724083
  52.4728553  52.9563833  19.1484083  34.6538553  42.8683833  21.4634083
  35.1428553  42.5763833  22.1244083  34.7828553  42.2753833  20.8364083
  34.7448553  42.7373833  21.4684083  49.6888553  45.8903833  28.3144083
  49.6818553  45.1143833  28.7124083  48.8478553  46.1243833  28.3074083
  49.5638553  45.8103833  28.3724083  39.1788553  44.3023833  16.9494083
  38.5688553  43.8973833  17.4234083  38.7928553  44.4203833  16.1764083
  39.0318553  44.2593833  16.9054083  35.9978553  47.4113833  32.3514083
  35.5768553  46.8933833  31.7904083  35.6458553  48.1973833  32.2084083
  35.8838553  47.4513833  32.2474083  50.9448553  45.9613833  25.7514083
  50.6588553  46.3623833  26.4714083  51.8048553  45.8993833  25.8784083
  51.0298553  46.0113833  25.8764083  40.6338553  42.7633833  19.6594083
  40.9058553  43.5893833  19.7264083  39.7708553  42.8383833  19.5634083
  40.5468553  42.8963833  19.6544083  48.6068553  39.8853833  34.2914083
  48.0818553  40.3443833  34.8154083  48.2458553  39.0903833  34.2854083
  48.4758553  39.8353833  34.3674083  34.1138553  38.7333833  26.1954083
  34.1578553  39.0773833  25.3944083  34.8688553  38.9703833  26.5624083
  34.2318553  38.8193833  26.1314083  52.0758553  51.5943833  26.2804083
  52.3658553  51.8513833  25.4994083  52.7708553  51.6903833  26.7994083
  52.2218553  51.6463833  26.2414083  47.0988553  43.4543833  34.3674083
  47.1718553  43.5583833  35.2304083  46.4648553  44.0123833  34.1464083
  47.0158553  43.5523833  34.4624083  49.3668553  43.7733833  32.7324083
  49.6858553  44.5593833  32.9354083  48.9968553  43.5033833  33.4754083
  49.3598553  43.8493833  32.8724083  48.6808553  50.1973833  18.2624083
  49.0148553  49.3913833  18.2974083  47.9258553  50.1253833  18.6924083
  48.6188553  50.0673833  18.3314083  49.1628553  42.0313833  23.9214083
  48.4178553  41.7083833  24.2394083  49.1648553  42.8573833  24.2014083
  49.0528553  42.1053833  24.0094083  52.0648553  44.3153833  35.4674083
  52.0128553  43.9743833  34.6664083  52.8018553  44.7823833  35.4454083
  52.1658553  44.3343833  35.3454083  51.6028553  47.9913833  31.6734083
  52.2308553  47.4423833  31.4174083  51.5418553  48.5563833  31.0114083
  51.6868553  47.9943833  31.5374083  46.0548553  48.0723833  17.6654083
  46.7388553  47.5583833  17.4964083  45.6378553  48.1183833  16.9004083
  46.0938553  48.0033833  17.5274083  40.7368553  49.2223833  28.9694083
  40.4388553  49.8143833  29.5364083  40.7918553  49.6643833  28.2204083
  40.7008553  49.3753833  28.9424083  38.7158553  48.1723833  32.3674083
  37.9098553  47.8823833  32.5344083  38.6268553  49.0403833  32.3734083
  38.5838553  48.2573833  32.3924083  48.0748553  38.3613833  31.3824083
  48.8188553  38.8133833  31.3194083  47.5088553  38.8313833  30.9134083
  48.1018553  38.4983833  31.3044083  43.2528553  45.6453833  28.4604083
  43.7288553  46.0193833  29.0884083  42.4298553  45.7793833  28.7194083
  43.2018553  45.7203833  28.5914083  39.9628553  41.2483833  31.2014083
  40.1238553  40.5043833  31.6284083  39.9178553  40.9993833  30.3664083
  39.9798553  41.1013833  31.1414083  42.5168553  53.0383833  23.6884083
  43.0628553  53.7173833  23.7424083  42.1668553  53.1203833  22.8934083
  42.5458553  53.1513833  23.5784083  49.3598553  36.3413833  29.0524083
  49.0798553  37.1663833  29.0084083  50.0758553  36.3943833  29.5484083
  49.4248553  36.4713833  29.1194083  41.7148553  37.0563833  31.0814083
  42.4198553  37.3763833  30.6794083  41.9558553  36.2493833  31.3084083
  41.8538553  36.9843833  31.0554083  40.6998553  51.2663833  27.0774083
  40.0758553  51.8483833  26.8954083  40.9478553  50.9803833  26.2914083
  40.6438553  51.3103833  26.9344083  45.0088553  47.9003833  34.0664083
  45.7658553  48.1863833  33.7404083  44.4618553  47.9523833  33.3884083
  45.0398553  47.9503833  33.9174083  48.9178553  50.4503833  32.5704083
  49.2638553  50.7203833  33.3244083  49.2118553  51.0323833  31.9904083
  49.0128553  50.5763833  32.5964083  50.7808553  42.5963833  17.9094083
  51.1588553  43.2733833  17.5094083  49.9388553  42.8203833  17.9404083
  50.7118553  42.7293833  17.8544083  42.2938553  46.0423833  16.9924083
  41.4888553  45.8653833  16.7074083  42.2608553  46.8933833  17.1844083
  42.1698553  46.1413833  16.9794083  38.2238553  42.1093833  27.1424083
  38.6638553  42.0063833  26.3964083  38.7688553  41.7963833  27.7474083
  38.3688553  42.0483833  27.1214083  46.2398553  41.2113833  32.7344083
  45.5918553  41.6813833  33.0824083  46.8048553  41.1223833  33.3934083
  46.2278553  41.2673833  32.8834083  45.9278553  42.7483833  29.0324083
  46.2298553  43.1683833  29.7354083  45.9638553  41.9083833  29.2644083
  45.9778553  42.6863833  29.1704083  43.3528553  52.9153833  32.9574083
  43.8308553  52.3153833  32.5414083  43.0018553  52.4723833  33.6224083
  43.3718553  52.7613833  32.9944083  48.4758553  42.1953833  21.2844083
  48.6828553  41.9943833  22.1084083  49.2318553  42.4633833  20.9424083
  48.6178553  42.2053833  21.3554083  49.4978553  38.2783833  22.7584083
  48.7838553  37.8073833  22.9294083  49.3358553  38.6193833  21.9724083
  49.3688553  38.2593833  22.6674083  49.9408553  46.2223833  21.1384083
  50.4168553  45.4933833  21.0904083  49.1198553  45.9363833  21.0624083
  49.8898553  46.0723833  21.1194083  43.4118553  48.1343833  31.9774083
  42.6168553  48.0703833  32.3284083  43.4828553  48.9813833  31.7824083
  43.3048553  48.2493833  32.0004083  34.3358553  37.4923833  33.2244083
  34.1958553  38.2873833  32.8934083  33.5498553  37.2493833  33.5134083
  34.1988553  37.5743833  33.2184083  39.2418553  54.3413833  27.2944083
  39.2528553  54.4003833  28.1644083  38.8168553  53.5943833  27.1444083
  39.1808553  54.2393833  27.4004083  37.3998553  40.2363833  20.4494083
  37.5258553  39.9073833  19.6514083  36.5878553  39.9873833  20.6484083
  37.2988553  40.1513833  20.3614083  46.1568553  47.3893833  23.4934083
  46.2328553  47.7303833  24.2924083  46.3258553  46.5423833  23.6144083
  46.1928553  47.3143833  23.6294083  43.6788553  46.6633833  23.0584083
  43.3808553  46.3483833  23.8154083  44.3738553  47.1363833  23.2934083
  43.7378553  46.6863833  23.2054083  43.9008553  50.7813833  31.0854083
  44.5878553  50.6673833  31.6104083  44.0348553  51.5723833  30.7414083
  44.0218553  50.8813833  31.1124083  52.0768553  43.3903833  32.8964083
  51.2218553  43.2683833  33.0224083  52.2298553  42.9953833  32.1334083
  51.9728553  43.3133833  32.8024083  46.5898553  44.0553833  31.4724083
  46.3348553  43.3363833  31.8944083  47.4108553  44.1713833  31.7424083
  46.6738553  43.9663833  31.5744083  36.0058553  53.8393833  32.7364083
  35.3518553  53.2703833  32.8344083  35.6308553  54.6123833  32.8874083
  35.8538553  53.8693833  32.7734083  44.5238553  45.2453833  34.6594083
  44.8468553  45.9313833  34.2274083  43.8198553  45.5683833  35.0614083
  44.4668553  45.3943833  34.6544083  47.6078553  53.6193833  25.5884083
  47.1568553  54.2623833  25.9674083  48.3158553  53.5403833  26.0934083
  47.6458553  53.7023833  25.7194083  44.3088553  48.7093833  28.5184083
  43.6148553  49.1113833  28.8614083  44.9858553  49.1423833  28.8574083
  44.3058553  48.8323833  28.6194083  49.6858553  51.3023833  35.0984083
  50.4618553  50.9123833  35.1814083  49.2168553  50.9663833  35.7534083
  49.7308553  51.1953833  35.2074083  37.3768553  42.2473833  30.8654083
  37.7518553  42.8663833  30.3784083  38.0508553  41.7733833  31.1504083
  37.5318553  42.2693833  30.8354083  35.1518553  40.6953833  30.1404083
  35.2288553  40.5263833  29.2874083  35.8978553  41.1013833  30.3374083
  35.2728553  40.7303833  30.0434083  50.7108553  43.3353833  20.5804083
  50.8138553  43.2773833  19.7164083  51.4518553  43.0033833  20.8984083
  50.8358553  43.2783833  20.4994083  37.7058553  38.1053833  32.5514083
  37.6248553  37.2613833  32.7574083  37.3918553  38.1493833  31.7384083
  37.6478553  37.9873833  32.4614083  44.6308553  50.3003833  21.6874083
  44.4258553  51.1333833  21.5284083  43.8558553  49.9183833  21.8094083
  44.4858553  50.3673833  21.6824083  49.8128553  43.4813833  29.9364083
  49.8108553  42.6183833  30.0604083  49.8798553  43.8053833  30.7434083
  49.8228553  43.4013833  30.0734083  34.5488553  45.9213833  30.3644083
  34.8688553  46.1403833  29.5834083  34.4488553  45.0563833  30.3094083
  34.5808553  45.8263833  30.2414083  36.0048553  41.8573833  16.9824083
  35.3328553  41.8713833  17.5384083  36.0998553  41.0093833  16.7984083
  35.9198553  41.7343833  17.0374083  45.6918553  38.2813833  33.7184083
  45.7838553  38.9933833  34.2124083  45.0548553  37.8363833  34.1154083
  45.6108553  38.3203833  33.8504083  44.6858553  38.4713833  24.5724083
  43.9858553  38.9893833  24.5164083  44.7238553  38.0913833  23.7884083
  44.5878553  38.4923833  24.4484083  39.9928553  50.5623833  18.0964083
  40.4338553  50.6423833  18.8444083  39.1878553  50.3463833  18.3544083
  39.9388553  50.5423833  18.2454083  48.2838553  38.9873833  27.3724083
  49.1388553  39.0863833  27.5174083  47.9148553  39.5403833  27.9374083
  48.3558553  39.0843833  27.4774083  39.3118553  45.2133833  31.7494083
  38.9158553  45.9873833  31.8244083  38.9058553  44.8403833  31.0734083
  39.1938553  45.2723833  31.6604083  48.5878553  44.2673833  25.8634083
  49.2538553  44.8083833  26.0234083  48.2428553  44.5783833  25.1244083
  48.6348553  44.3933833  25.7784083  48.9008553  52.3333833  21.6704083
  48.7268553  51.6793833  22.2204083  49.6138553  52.0623833  21.2474083
  48.9808553  52.1963833  21.6894083  37.3218553  49.6323833  18.6974083
  37.0778553  49.3253833  19.4774083  37.2888553  48.9293833  18.1814083
  37.2808553  49.4833833  18.7364083  40.1408553  47.8773833  17.4404083
  39.3228553  47.6093833  17.5804083  40.1128553  48.7293833  17.6254083
  40.0158553  47.9643833  17.4884083  39.7408553  38.1903833  29.1994083
  38.8768553  38.2743833  29.2794083  39.9608553  37.6763833  29.8684083
  39.6458553  38.1273833  29.3104083  51.7588553  36.8253833  30.5284083
  51.7068553  36.7813833  31.3984083  52.4458553  36.3223833  30.3384083
  51.8528553  36.7453833  30.6284083  43.8438553  38.9383833  27.5734083
  43.1068553  38.4843833  27.6864083  44.4148553  38.5363833  28.0964083
  43.8188553  38.8113833  27.6674083  46.5758553  49.7863833  29.3614083
  46.7818553  50.0873833  30.1534083  46.5148553  50.5083833  28.8764083
  46.5968553  49.9373833  29.4064083  46.1098553  54.0003833  33.6074083
  45.3568553  53.9823833  33.1664083  46.2778553  54.8523833  33.6914083
  46.0238553  54.1233833  33.5544083  41.3468553  43.2673833  32.7774083
  41.0248553  42.6913833  32.2074083  40.9878553  44.0223833  32.5314083
  41.2468553  43.2933833  32.6574083  42.1428553  36.5193833  17.4044083
  42.2208553  36.7663833  16.5714083  41.3998553  36.8963833  17.6624083
  42.0448553  36.6113833  17.3194083  51.3878553  48.4253833  28.8194083
  51.3558553  47.5633833  28.6844083  50.6948553  48.7273833  28.3854083
  51.2808553  48.3423833  28.7354083  39.7818553  53.6233833  33.0254083
  39.8228553  53.7493833  33.8884083  40.4328553  53.0633833  32.8694083
  39.8838553  53.5593833  33.1304083  49.4928553  51.6853833  27.6164083
  50.0198553  51.6023833  26.9254083  49.1018553  50.9073833  27.6704083
  49.5128553  51.5583833  27.5224083  36.9608553  38.2733833  29.8474083
  36.6178553  37.5063833  29.6134083  36.2658553  38.7973833  29.9114083
  36.8078553  38.2373833  29.8224083  46.0068553  37.1293833  26.8244083
  46.6768553  37.6733833  26.9514083  45.5038553  37.5533833  26.2514083
  46.0318553  37.2723833  26.7584083  37.3748553  52.0063833  34.3854083
  37.9698553  52.4373833  34.8574083  37.0108553  52.6303833  33.8964083
  37.4088553  52.1623833  34.3824083  45.3658553  42.9373833  24.3174083
  45.9168553  42.3303833  24.6174083  44.9408553  43.2003833  25.0324083
  45.3848553  42.8863833  24.4664083  35.6138553  41.5873833  23.8034083
  35.2458553  41.8893833  24.5344083  36.1478553  40.9583833  24.0874083
  35.6378553  41.5393833  23.9534083  35.3018553  49.9953833  31.3144083
  34.7278553  50.4113833  31.8234083  36.0348553  50.4603833  31.4094083
  35.3258553  50.1253833  31.4034083  47.3358553  44.7683833  20.8794083
  47.4038553  43.9183833  21.0604083  46.5128553  44.8543833  20.6014083
  47.2238553  44.6553833  20.8654083  37.0878553  53.2623833  20.0894083
  36.9428553  53.4183833  19.2434083  37.9538553  53.3413833  20.1674083
  37.1948553  53.2973833  19.9764083  41.2548553  45.6593833  19.8174083
  41.3548553  45.7983833  18.9624083  42.0728553  45.5993833  20.1134083
  41.3898553  45.6703833  19.7344083  50.4148553  53.7233833  17.2974083
  51.0518553  53.5893833  17.8784083  50.0738553  52.9293833  17.1804083
  50.4588553  53.5863833  17.3654083  50.6098553  46.1413833  34.0304083
  51.2438553  45.9713833  34.6044083  51.0268553  46.5443833  33.3784083
  50.7648553  46.1763833  34.0194083  46.4898553  49.9883833  19.6194083
  46.2388553  49.8603833  20.4454083  46.1728553  49.2933833  19.1984083
  46.4058553  49.8673833  19.6794083  51.2348553  40.7053833  34.7684083
  51.0388553  41.3493833  35.3234083  50.5128553  40.2153833  34.7604083
  51.0998553  40.7283833  34.8494083  51.1338553  41.6463833  27.7394083
  50.3008553  41.8963833  27.6674083  51.0778553  40.8063833  27.9684083
  51.0028553  41.5593833  27.7624083  40.3938553  38.6343833  32.9334083
  40.6278553  38.0583833  32.3204083  39.5518553  38.4533833  33.0744083
  40.3038553  38.5223833  32.8634083  48.0208553  46.2523833  35.3854083
  48.8918553  46.2163833  35.3494083  47.8018553  46.6723833  34.6534083
  48.1178553  46.3083833  35.2724083  37.7748553  52.0773833  26.5664083
  37.6958553  51.2673833  26.2504083  37.3308553  52.5643833  25.9944083
  37.6978553  52.0293833  26.4354083  43.3758553  48.1963833  19.0494083
  44.0928553  47.8493833  18.6934083  43.3418553  48.9963833  18.7014083
  43.4768553  48.2633833  18.9454083  35.3468553  54.3213833  30.1474083
  35.8398553  54.2653833  30.8654083  35.5348553  53.5883833  29.7124083
  35.4478553  54.2043833  30.1894083  44.7848553  36.8373833   3.2881673
  44.5398553  37.3253833   2.6081673  45.6478553  36.7643833   3.1881673
  44.8758553  36.8983833   3.1731673  44.5938553  43.7533833   7.9591673
  44.0698553  44.3493833   8.3221673  44.9908553  43.3853833   8.6431673
  44.5748553  43.7873833   8.1141673  34.4628553  47.8933833   3.4151673
  34.0218553  48.0113833   4.1581673  34.1798553  47.1183833   3.1301673
  34.3558553  47.7963833   3.4831673  47.2648553  44.8203833   4.6351673
  47.3448553  44.8243833   3.7661673  46.6808553  44.1883833   4.7841673
  47.1898553  44.7273833   4.5291673  36.9718553  48.5893833   2.4941673
  37.5798553  48.4193833   3.0971673  36.2208553  48.4493833   2.9151673
  36.9508553  48.5433833   2.6451673  41.2538553  37.9243833   2.4431673
  41.1838553  38.6013833   1.8971673  41.9948553  37.5363833   2.1941673
  41.3528553  37.9673833   2.3251673  34.4028553  50.6283833   9.6701673
  34.5318553  50.3483833  10.4861673  33.7928553  50.0873833   9.3611673
  34.3318553  50.5073833   9.7451673  40.9768553  48.1533833  14.7371673
  40.7408553  48.1503833  15.5771673  40.2288553  48.0053833  14.3131673
  40.8308553  48.1303833  14.7981673  35.8488553  45.1493833   3.8721673
  35.3868553  44.7573833   3.2451673  36.5488553  44.6363833   3.9641673
  35.8838553  45.0163833   3.7931673  40.3568553  40.7593833   9.2191673
  41.0348553  40.7773833   8.6701673  40.3118553  39.9233833   9.4641673
  40.4498553  40.6383833   9.1741673  40.9588553  51.3453833  12.0001673
  41.0968553  52.1053833  11.5931673  41.7498553  50.9803833  12.0271673
  41.0958553  51.4043833  11.9441673  37.8498553  43.2493833   3.8951673
  38.6668553  43.0623833   4.1381673  37.3728553  42.6353833   4.2911673
  37.8998553  43.1313833   3.9901673  42.0538553  49.2303833   6.5051673
  42.4018553  48.4313833   6.5351673  42.7188553  49.7343833   6.2501673
  42.2038553  49.1863833   6.4721673  42.1108553  48.6793833   2.7161673
  42.4418553  48.0353833   3.2021673  42.3508553  48.4683833   1.9051673
  42.1948553  48.5533833   2.6681673  44.0788553  42.8103833  14.0551673
  43.2308553  42.7113833  13.8771673  44.1078553  43.5553833  14.5091673
  43.9578553  42.9063833  14.0961673  38.4468553  38.3433833   3.1611673
  38.1508553  38.8443833   2.5111673  39.3138553  38.4213833   3.1041673
  38.5308553  38.4293833   3.0571673  48.6368553  35.7703833  13.1691673
  48.4788553  36.5393833  12.7871673  47.8648553  35.5503833  13.5131673
  48.4988553  35.8513833  13.1641673  41.4258553  37.4853833   5.3841673
  41.4988553  38.3453833   5.5131673  41.3878553  37.4103833   4.5161673
  41.4308553  37.6013833   5.2751673  34.3048553  42.9103833   6.8851673
  34.0488553  43.7413833   6.8101673  33.6408553  42.5273833   7.3021673
  34.1688553  42.9763833   6.9361673  34.2148553  52.6203833   4.7851673
  33.6228553  53.1783833   4.4721673  34.6408553  52.3513833   4.0731673
  34.1908553  52.6623833   4.6341673  40.0548553  50.4643833   2.2651673
  39.4758553  50.1893833   2.8571673  40.6788553  49.8553833   2.2901673
  40.0618553  50.3343833   2.3561673  44.3658553  53.1443833   1.7771673
  44.5798553  53.6713833   2.4391673  45.1328553  52.9703833   1.3981673
  44.5108553  53.1963833   1.8191673  37.3338553  37.7273833   7.3761673
  36.8128553  37.0993833   7.0681673  37.9248553  37.2903833   7.8471673
  37.3448553  37.5693833   7.4001673  40.6398553  39.8603833  16.6741673
  40.7568553  39.4063833  15.9381673  40.9278553  40.6583833  16.4711673
  40.6998553  39.9113833  16.5351673  35.7598553  51.2903833   2.7161673
  36.4158553  50.7153833   2.7311673  36.1488553  52.0393833   2.4951673
  35.9148553  51.3153833   2.6861673  51.4928553  40.3843833   3.9781673
  51.1468553  41.0623833   4.4041673  50.8568553  39.7863833   3.9941673
  51.3478553  40.3963833   4.0431673  46.8048553  53.1543833  10.0821673
  47.5488553  53.6103833  10.0721673  46.6838553  52.9403833   9.2451673
  46.8968553  53.1903833   9.9571673  36.3728553  39.4573833  15.6581673
  35.5948553  39.0673833  15.5861673  36.8638553  39.0453833  15.0671673
  36.3298553  39.3383833  15.5601673  36.5778553  49.7773833   6.2161673
  37.0008553  49.4213833   5.5421673  36.9018553  49.3553833   6.9081673
  36.6878553  49.6623833   6.2191673  39.8088553  52.6293833   5.5121673
  40.6528553  52.7333833   5.3171673  39.5118553  53.4473833   5.5801673
  39.8898553  52.7653833   5.4931673  43.0218553  37.1003833  14.8261673
  43.1998553  36.2913833  14.5511673  42.8788553  37.5413833  14.0871673
  43.0268553  37.0463833  14.6761673  43.6158553  42.0263833   3.5991673
  43.9028553  41.7943833   2.8091673  44.3478553  42.1053833   4.0681673
  43.7658553  42.0033833   3.5521673  38.8068553  53.8483833  11.2521673
  39.0988553  53.7813833  12.0721673  38.1808553  53.2433833  11.2071673
  38.7578553  53.7493833  11.3671673  51.1678553  38.7073833   9.3471673
  51.9248553  38.7793833   8.9191673  51.2308553  37.9343833   9.7461673
  51.2888553  38.6043833   9.3421673  33.7208553  40.0053833  13.2441673
  33.7168553  40.5923833  13.8901673  34.3148553  40.3173833  12.6871673
  33.8078553  40.1383833  13.2571673  46.0588553  50.3393833  13.7861673
  46.0248553  50.7213833  14.5701673  46.9128553  50.2973833  13.6151673
  46.1798553  50.3893833  13.8771673  34.6578553  39.6003833   2.1591673
  34.5438553  38.7363833   2.1901673  34.1828553  39.8943833   2.8291673
  34.5708553  39.5163833   2.2621673  36.7998553  52.0103833  10.3741673
  36.1018553  51.5023833  10.5001673  37.0598553  51.8053833   9.5661673
  36.7348553  51.9053833  10.2731673  44.5108553  53.5033833  11.2841673
  45.2788553  53.4233833  10.8781673  43.9278553  53.3823833  10.6461673
  44.5378553  53.4733833  11.1301673  50.7878553  54.1063833   4.1851673
  50.3328553  54.8233833   4.3861673  50.1738553  53.5353833   3.9431673
  50.6298553  54.1283833   4.1791673  42.5598553  40.1163833   5.3171673
  42.6338553  40.6843833   4.6591673  42.6808553  40.6083833   6.0271673
  42.5878553  40.2733833   5.3251673  47.7848553  49.9513833   3.7291673
  48.4858553  49.4693833   3.9181673  47.1248553  49.3823833   3.7741673
  47.7908553  49.7963833   3.7631673  38.1608553  50.8613833  12.9411673
  39.0018553  50.9243833  12.7191673  38.1238553  51.2583833  13.7171673
  38.2798553  50.9293833  13.0231673  37.1678553  35.9393833   3.6651673
  37.7038553  36.6273833   3.6551673  37.1708553  35.6653833   2.8371673
  37.2468553  36.0003833   3.5411673  40.1238553  46.3723833   7.6901673
  40.2958553  46.1623833   8.5191673  39.4688553  45.8383833   7.4741673
  40.0528553  46.2623833   7.7811673  46.3518553  40.2863833  11.2051673
  46.2568553  40.6053833  12.0111673  45.7588553  39.6473833  11.1671673
  46.2498553  40.2383833  11.3191673  40.8738553  46.3103833  10.2801673
  40.9268553  47.1573833  10.4821673  40.5888553  45.9403833  11.0171673
  40.8398553  46.3803833  10.4181673  47.0508553  47.0053833   9.4101673
  46.5368553  46.5933833   9.9811673  46.9248553  47.8493833   9.5911673
  46.9568553  47.0693833   9.5211673  47.6078553  36.2303833   4.0411673
  47.6568553  35.9123833   4.8521673  47.9308553  35.5863833   3.5481673
  47.6628553  36.0883833   4.0881673  33.6948553  50.6813833  16.4911673
  34.4508553  51.0303833  16.7491673  33.8718553  49.8283833  16.4341673
  33.8328553  50.6063833  16.5211673  50.0718553  40.4663833  12.3491673
  50.8438553  40.2413833  12.6861673  49.5968553  40.6833833  13.0491673
  50.1158553  40.4653833  12.5021673  37.6158553  39.7493833   5.3191673
  37.8878553  39.3193833   4.6111673  37.4398553  39.1133833   5.8901673
  37.6298553  39.5923833   5.2991673  37.4398553  47.1763833   4.8681673
  38.2908553  47.0963833   4.6951673  37.0828553  46.4943833   4.4561673
  37.5128553  47.0633833   4.7811673  36.2068553  53.9013833   6.1051673
  35.5338553  53.4033833   5.8601673  36.6098553  54.0863833   5.3541673
  36.1668553  53.8553833   5.9581673  35.7568553  40.8513833   8.4011673
  36.5998553  41.0713833   8.3581673  35.3678553  41.4243833   7.8701673
  35.8238553  40.9683833   8.3161673  52.5378553  51.9533833  13.7911673
  51.8558553  52.2633833  13.3441673  52.1688553  51.4953833  14.4361673
  52.3818553  51.9313833  13.8201673  39.8078553  47.1833833   3.1031673
  40.5208553  47.6783833   3.1931673  40.0298553  46.6163833   2.4771673
  39.9458553  47.1723833   3.0241673  33.9638553  48.8263833   6.4231673
  33.2968553  49.3143833   6.6991673  34.6438553  49.3713833   6.4521673
  33.9658553  48.9783833   6.4681673  41.6108553  42.5363833  16.5191673
  41.1268553  43.1133833  16.9611673  41.5828553  42.8313833  15.6981673
  41.5348553  42.6653833  16.4631673  52.7088553  43.2203833  11.1311673
  52.9238553  42.4203833  10.8551673  51.8588553  43.2803833  10.9421673
  52.6148553  43.1113833  11.0621673  44.3308553  50.8863833   5.4301673
  43.8078553  51.5203833   5.1371673  44.6408553  50.5223833   4.7011673
  44.2988553  50.9263833   5.2791673  38.4058553  48.6743833   8.1901673
  38.8728553  48.9633833   8.8681673  38.9778553  48.1963833   7.7361673
  38.5598553  48.6463833   8.2231673  46.8418553  40.6883833   5.9271673
  47.1858553  40.8403833   6.7141673  46.3888553  39.9503833   6.0401673
  46.8258553  40.6013833   6.0601673  34.9718553  46.3443833   6.7341673
  35.4028553  46.2153833   5.9871673  34.7668553  47.1923833   6.7081673
  35.0048553  46.4503833   6.6201673  50.3718553  52.3353833  11.8811673
  49.7008553  52.8493833  12.0991673  50.4348553  52.4353833  11.0171673
  50.2818553  52.4263833  11.7861673  39.0558553  49.8603833   5.0161673
  39.1818553  50.7033833   5.2031673  39.7238553  49.4613833   5.4121673
  39.1738553  49.9263833   5.1021673  37.1858553  43.3433833  14.8781673
  36.6498553  42.8373833  15.3461673  37.2058553  42.9533833  14.0981673
  37.1088553  43.2103833  14.8321673  37.8378553  44.5703833   6.6171673
  37.0568553  44.5113833   6.2341673  37.9098553  43.8183833   7.0541673
  37.7328553  44.4513833   6.6251673  38.2678553  44.3073833  10.0851673
  38.2928553  43.6323833   9.5341673  37.6218553  44.8033833   9.7731673
  38.1768553  44.2803833   9.9581673  48.1628553  42.0203833   8.4811673
  47.5008553  42.3483833   8.9441673  48.3498553  42.6543833   7.9121673
  48.0928553  42.1623833   8.4651673  42.3678553  53.0843833   9.4771673
  42.0908553  52.4433833   8.9541673  42.1598553  53.8103833   9.0391673
  42.2968553  53.0973833   9.3351673  44.8078553  37.9263833  11.9101673
  44.9568553  37.1013833  11.6671673  45.1868553  37.9813833  12.6941673
  44.8858553  37.8123833  11.9901673  46.3558553  39.9893833   1.9921673
  46.8458553  40.7063833   1.9151673  45.5658553  40.2503833   1.7291673
  46.3118553  40.1333833   1.9421673  36.0668553  45.6623833  15.6441673
  36.0298553  46.1633833  14.9301673  36.3978553  44.9103833  15.3491673
  36.1098553  45.6243833  15.4951673  47.6698553  47.8673833  13.9021673
  48.1538553  48.5853833  14.0001673  48.0638553  47.4403833  13.2511673
  47.7998553  47.9103833  13.8201673  41.9658553  50.7123833  15.0791673
  42.3198553  50.5343833  15.8561673  41.5298553  49.9833833  14.8801673
  41.9538553  50.5783833  15.1651673  42.9378553  41.4593833   7.7171673
  43.4178553  42.1583833   7.9251673  43.3108553  40.8123833   8.1681673
  43.0638553  41.4673833   7.8141673  50.0988553  48.4983833   3.9721673
  50.4548553  48.1483833   4.6871673  50.0908553  47.8373833   3.4021673
  50.1508553  48.3483833   3.9931673  46.1438553  51.5643833   7.8161673
  45.5408553  51.2683833   7.2591673  46.6888553  52.0163833   7.3071673
  46.1348553  51.5873833   7.6581673  46.1568553  48.4153833   7.2161673
  45.3598553  48.6393833   7.4901673  46.4148553  47.8213833   7.8011673
  46.0768553  48.3603833   7.3431673  49.4168553  46.4133833  12.0621673
  49.4718553  46.5383833  11.2001673  50.1698553  46.7333833  12.3641673
  49.5358553  46.4783833  11.9791673  45.6078553  51.7623833  16.3391673
  45.7718553  52.0453833  17.1481673  45.8708553  52.4233833  15.8341673
  45.6708553  51.9023833  16.3841673  50.4488553  36.7113833  15.0491673
  49.8118553  36.3113833  14.6071673  50.4748553  36.2803833  15.8071673
  50.3588553  36.5893833  15.0951673  45.1478553  46.2193833  11.6621673
  44.9928553  46.8293833  12.2661673  45.6818553  45.6613833  12.0681673
  45.2038553  46.2273833  11.8111673  33.8388553  36.9383833   1.8631673
  33.9678553  36.2303833   1.3711673  33.4718553  36.6203833   2.5881673
  33.8038553  36.7863833   1.8981673  43.5318553  44.6193833   2.3201673
  43.5908553  45.2693833   2.8991673  43.3428553  43.9233833   2.8111673
  43.5128553  44.6123833   2.4781673  48.7578553  48.9483833   8.1891673
  48.2788553  49.2463833   7.5231673  48.4018553  48.1723833   8.3671673
  48.6348553  48.8773833   8.1171673  42.7548553  46.6663833   6.7511673
  41.9078553  46.4723833   6.8321673  43.0788553  46.5013833   7.5441673
  42.6768553  46.6133833   6.8801673  36.6028553  46.3593833   9.0671673
  37.3248553  46.8473833   9.0301673  36.3328553  46.3293833   8.2381673
  36.6698553  46.4273833   8.9391673  39.8328553  41.5303833   5.8021673
  40.6788553  41.3403833   5.9001673  39.4628553  40.7533833   5.6641673
  39.9028553  41.3873833   5.7961673  34.6538553  42.8683833   2.4571673
  35.1428553  42.5763833   3.1181673  34.7828553  42.2753833   1.8301673
  34.7448553  42.7373833   2.4621673  49.6888553  45.8903833   9.3081673
  49.6818553  45.1143833   9.7061673  48.8478553  46.1243833   9.3011673
  49.5638553  45.8103833   9.3661673  35.9978553  47.4113833  13.3451673
  35.5768553  46.8933833  12.7841673  35.6458553  48.1973833  13.2021673
  35.8838553  47.4513833  13.2411673  50.9448553  45.9613833   6.7451673
  50.6588553  46.3623833   7.4651673  51.8048553  45.8993833   6.8721673
  51.0298553  46.0113833   6.8701673  48.6068553  39.8853833  15.2851673
  48.0818553  40.3443833  15.8091673  48.2458553  39.0903833  15.2791673
  48.4758553  39.8353833  15.3611673  34.1138553  38.7333833   7.1891673
  34.1578553  39.0773833   6.3881673  34.8688553  38.9703833   7.5561673
  34.2318553  38.8193833   7.1251673  52.0758553  51.5943833   7.2741673
  52.3658553  51.8513833   6.4931673  52.7708553  51.6903833   7.7931673
  52.2218553  51.6463833   7.2351673  47.0988553  43.4543833  15.3611673
  47.1718553  43.5583833  16.2241673  46.4648553  44.0123833  15.1401673
  47.0158553  43.5523833  15.4561673  49.3668553  43.7733833  13.7261673
  49.6858553  44.5593833  13.9291673  48.9968553  43.5033833  14.4691673
  49.3598553  43.8493833  13.8661673  49.1628553  42.0313833   4.9151673
  48.4178553  41.7083833   5.2331673  49.1648553  42.8573833   5.1951673
  49.0528553  42.1053833   5.0031673  52.0648553  44.3153833  16.4611673
  52.0128553  43.9743833  15.6601673  52.8018553  44.7823833  16.4391673
  52.1658553  44.3343833  16.3391673  51.6028553  47.9913833  12.6671673
  52.2308553  47.4423833  12.4111673  51.5418553  48.5563833  12.0051673
  51.6868553  47.9943833  12.5311673  40.7368553  49.2223833   9.9631673
  40.4388553  49.8143833  10.5301673  40.7918553  49.6643833   9.2141673
  40.7008553  49.3753833   9.9361673  38.7158553  48.1723833  13.3611673
  37.9098553  47.8823833  13.5281673  38.6268553  49.0403833  13.3671673
  38.5838553  48.2573833  13.3861673  48.0748553  38.3613833  12.3761673
  48.8188553  38.8133833  12.3131673  47.5088553  38.8313833  11.9071673
  48.1018553  38.4983833  12.2981673  43.2528553  45.6453833   9.4541673
  43.7288553  46.0193833  10.0821673  42.4298553  45.7793833   9.7131673
  43.2018553  45.7203833   9.5851673  39.9628553  41.2483833  12.1951673
  40.1238553  40.5043833  12.6221673  39.9178553  40.9993833  11.3601673
  39.9798553  41.1013833  12.1351673  42.5168553  53.0383833   4.6821673
  43.0628553  53.7173833   4.7361673  42.1668553  53.1203833   3.8871673
  42.5458553  53.1513833   4.5721673  49.3598553  36.3413833  10.0461673
  49.0798553  37.1663833  10.0021673  50.0758553  36.3943833  10.5421673
  49.4248553  36.4713833  10.1131673  41.7148553  37.0563833  12.0751673
  42.4198553  37.3763833  11.6731673  41.9558553  36.2493833  12.3021673
  41.8538553  36.9843833  12.0491673  40.6998553  51.2663833   8.0711673
  40.0758553  51.8483833   7.8891673  40.9478553  50.9803833   7.2851673
  40.6438553  51.3103833   7.9281673  45.0088553  47.9003833  15.0601673
  45.7658553  48.1863833  14.7341673  44.4618553  47.9523833  14.3821673
  45.0398553  47.9503833  14.9111673  48.9178553  50.4503833  13.5641673
  49.2638553  50.7203833  14.3181673  49.2118553  51.0323833  12.9841673
  49.0128553  50.5763833  13.5901673  38.2238553  42.1093833   8.1361673
  38.6638553  42.0063833   7.3901673  38.7688553  41.7963833   8.7411673
  38.3688553  42.0483833   8.1151673  46.2398553  41.2113833  13.7281673
  45.5918553  41.6813833  14.0761673  46.8048553  41.1223833  14.3871673
  46.2278553  41.2673833  13.8771673  45.9278553  42.7483833  10.0261673
  46.2298553  43.1683833  10.7291673  45.9638553  41.9083833  10.2581673
  45.9778553  42.6863833  10.1641673  43.3528553  52.9153833  13.9511673
  43.8308553  52.3153833  13.5351673  43.0018553  52.4723833  14.6161673
  43.3718553  52.7613833  13.9881673  48.4758553  42.1953833   2.2781673
  48.6828553  41.9943833   3.1021673  49.2318553  42.4633833   1.9361673
  48.6178553  42.2053833   2.3491673  41.7708553  37.0943833   8.1831673
  40.9448553  36.9453833   8.4201673  41.7308553  37.1293833   7.3121673
  41.6428553  37.0773833   8.0891673  49.4978553  38.2783833   3.7521673
  48.7838553  37.8073833   3.9231673  49.3358553  38.6193833   2.9661673
  49.3688553  38.2593833   3.6611673  49.9408553  46.2223833   2.1321673
  50.4168553  45.4933833   2.0841673  49.1198553  45.9363833   2.0561673
  49.8898553  46.0723833   2.1131673  43.4118553  48.1343833  12.9711673
  42.6168553  48.0703833  13.3221673  43.4828553  48.9813833  12.7761673
  43.3048553  48.2493833  12.9941673  34.3358553  37.4923833  14.2181673
  34.1958553  38.2873833  13.8871673  33.5498553  37.2493833  14.5071673
  34.1988553  37.5743833  14.2121673  39.2418553  54.3413833   8.2881673
  39.2528553  54.4003833   9.1581673  38.8168553  53.5943833   8.1381673
  39.1808553  54.2393833   8.3941673  46.1568553  47.3893833   4.4871673
  46.2328553  47.7303833   5.2861673  46.3258553  46.5423833   4.6081673
  46.1928553  47.3143833   4.6231673  43.6788553  46.6633833   4.0521673
  43.3808553  46.3483833   4.8091673  44.3738553  47.1363833   4.2871673
  43.7378553  46.6863833   4.1991673  43.9008553  50.7813833  12.0791673
  44.5878553  50.6673833  12.6041673  44.0348553  51.5723833  11.7351673
  44.0218553  50.8813833  12.1061673  52.0768553  43.3903833  13.8901673
  51.2218553  43.2683833  14.0161673  52.2298553  42.9953833  13.1271673
  51.9728553  43.3133833  13.7961673  46.5898553  44.0553833  12.4661673
  46.3348553  43.3363833  12.8881673  47.4108553  44.1713833  12.7361673
  46.6738553  43.9663833  12.5681673  36.0058553  53.8393833  13.7301673
  35.3518553  53.2703833  13.8281673  35.6308553  54.6123833  13.8811673
  35.8538553  53.8693833  13.7671673  44.5238553  45.2453833  15.6531673
  44.8468553  45.9313833  15.2211673  43.8198553  45.5683833  16.0551673
  44.4668553  45.3943833  15.6481673  47.6078553  53.6193833   6.5821673
  47.1568553  54.2623833   6.9611673  48.3158553  53.5403833   7.0871673
  47.6458553  53.7023833   6.7131673  44.3088553  48.7093833   9.5121673
  43.6148553  49.1113833   9.8551673  44.9858553  49.1423833   9.8511673
  44.3058553  48.8323833   9.6131673  49.6858553  51.3023833  16.0921673
  50.4618553  50.9123833  16.1751673  49.2168553  50.9663833  16.7471673
  49.7308553  51.1953833  16.2011673  37.3768553  42.2473833  11.8591673
  37.7518553  42.8663833  11.3721673  38.0508553  41.7733833  12.1441673
  37.5318553  42.2693833  11.8291673  35.1518553  40.6953833  11.1341673
  35.2288553  40.5263833  10.2811673  35.8978553  41.1013833  11.3311673
  35.2728553  40.7303833  11.0371673  37.7058553  38.1053833  13.5451673
  37.6248553  37.2613833  13.7511673  37.3918553  38.1493833  12.7321673
  37.6478553  37.9873833  13.4551673  44.6308553  50.3003833   2.6811673
  44.4258553  51.1333833   2.5221673  43.8558553  49.9183833   2.8031673
  44.4858553  50.3673833   2.6761673  49.8128553  43.4813833  10.9301673
  49.8108553  42.6183833  11.0541673  49.8798553  43.8053833  11.7371673
  49.8228553  43.4013833  11.0671673  34.5488553  45.9213833  11.3581673
  34.8688553  46.1403833  10.5771673  34.4488553  45.0563833  11.3031673
  34.5808553  45.8263833  11.2351673  45.6918553  38.2813833  14.7121673
  45.7838553  38.9933833  15.2061673  45.0548553  37.8363833  15.1091673
  45.6108553  38.3203833  14.8441673  44.6858553  38.4713833   5.5661673
  43.9858553  38.9893833   5.5101673  44.7238553  38.0913833   4.7821673
  44.5878553  38.4923833   5.4421673  48.2838553  38.9873833   8.3661673
  49.1388553  39.0863833   8.5111673  47.9148553  39.5403833   8.9311673
  48.3558553  39.0843833   8.4711673  39.3118553  45.2133833  12.7431673
  38.9158553  45.9873833  12.8181673  38.9058553  44.8403833  12.0671673
  39.1938553  45.2723833  12.6541673  48.5878553  44.2673833   6.8571673
  49.2538553  44.8083833   7.0171673  48.2428553  44.5783833   6.1181673
  48.6348553  44.3933833   6.7721673  48.9008553  52.3333833   2.6641673
  48.7268553  51.6793833   3.2141673  49.6138553  52.0623833   2.2411673
  48.9808553  52.1963833   2.6831673  39.7408553  38.1903833  10.1931673
  38.8768553  38.2743833  10.2731673  39.9608553  37.6763833  10.8621673
  39.6458553  38.1273833  10.3041673  51.7588553  36.8253833  11.5221673
  51.7068553  36.7813833  12.3921673  52.4458553  36.3223833  11.3321673
  51.8528553  36.7453833  11.6221673  43.8438553  38.9383833   8.5671673
  43.1068553  38.4843833   8.6801673  44.4148553  38.5363833   9.0901673
  43.8188553  38.8113833   8.6611673  46.5758553  49.7863833  10.3551673
  46.7818553  50.0873833  11.1471673  46.5148553  50.5083833   9.8701673
  46.5968553  49.9373833  10.4001673  46.1098553  54.0003833  14.6011673
  45.3568553  53.9823833  14.1601673  46.2778553  54.8523833  14.6851673
  46.0238553  54.1233833  14.5481673  41.3468553  43.2673833  13.7711673
  41.0248553  42.6913833  13.2011673  40.9878553  44.0223833  13.5251673
  41.2468553  43.2933833  13.6511673  51.3878553  48.4253833   9.8131673
  51.3558553  47.5633833   9.6781673  50.6948553  48.7273833   9.3791673
  51.2808553  48.3423833   9.7291673  39.7818553  53.6233833  14.0191673
  39.8228553  53.7493833  14.8821673  40.4328553  53.0633833  13.8631673
  39.8838553  53.5593833  14.1241673  49.4928553  51.6853833   8.6101673
  50.0198553  51.6023833   7.9191673  49.1018553  50.9073833   8.6641673
  49.5128553  51.5583833   8.5161673  36.9608553  38.2733833  10.8411673
  36.6178553  37.5063833  10.6071673  36.2658553  38.7973833  10.9051673
  36.8078553  38.2373833  10.8161673  46.0068553  37.1293833   7.8181673
  46.6768553  37.6733833   7.9451673  45.5038553  37.5533833   7.2451673
  46.0318553  37.2723833   7.7521673  37.3748553  52.0063833  15.3791673
  37.9698553  52.4373833  15.8511673  37.0108553  52.6303833  14.8901673
  37.4088553  52.1623833  15.3761673  45.3658553  42.9373833   5.3111673
  45.9168553  42.3303833   5.6111673  44.9408553  43.2003833   6.0261673
  45.3848553  42.8863833   5.4601673  35.6138553  41.5873833   4.7971673
  35.2458553  41.8893833   5.5281673  36.1478553  40.9583833   5.0811673
  35.6378553  41.5393833   4.9471673  35.3018553  49.9953833  12.3081673
  34.7278553  50.4113833  12.8171673  36.0348553  50.4603833  12.4031673
  35.3258553  50.1253833  12.3971673  47.3358553  44.7683833   1.8731673
  47.4038553  43.9183833   2.0541673  46.5128553  44.8543833   1.5951673
  47.2238553  44.6553833   1.8591673  50.6098553  46.1413833  15.0241673
  51.2438553  45.9713833  15.5981673  51.0268553  46.5443833  14.3721673
  50.7648553  46.1763833  15.0131673  51.2348553  40.7053833  15.7621673
  51.0388553  41.3493833  16.3171673  50.5128553  40.2153833  15.7541673
  51.0998553  40.7283833  15.8431673  51.1338553  41.6463833   8.7331673
  50.3008553  41.8963833   8.6611673  51.0778553  40.8063833   8.9621673
  51.0028553  41.5593833   8.7561673  40.3938553  38.6343833  13.9271673
  40.6278553  38.0583833  13.3141673  39.5518553  38.4533833  14.0681673
  40.3038553  38.5223833  13.8571673  48.0208553  46.2523833  16.3791673
  48.8918553  46.2163833  16.3431673  47.8018553  46.6723833  15.6471673
  48.1178553  46.3083833  16.2661673  37.7748553  52.0773833   7.5601673
  37.6958553  51.2673833   7.2441673  37.3308553  52.5643833   6.9881673
  37.6978553  52.0293833   7.4291673  35.3468553  54.3213833  11.1411673
  35.8398553  54.2653833  11.8591673  35.5348553  53.5883833  10.7061673
  35.4478553  54.2043833  11.1831673  44.7848553  18.3592753  79.3131313
  44.5398553  18.8472753  78.6331313  45.6478553  18.2862753  79.2131313
  44.8758553  18.4202753  79.1981313  44.5938553  25.2752753  83.9841313
  44.0698553  25.8712753  84.3471313  44.9908553  24.9072753  84.6681313
  44.5748553  25.3092753  84.1391313  34.4628553  29.4152753  79.4401313
  34.0218553  29.5332753  80.1831313  34.1798553  28.6402753  79.1551313
  34.3558553  29.3182753  79.5081313  50.7378553  32.7162753  76.9551313
  51.4388553  32.1972753  76.9511313  50.1508553  32.2712753  76.4861313
  50.7548553  32.5732753  76.8851313  34.2058553  23.2072753  75.9471313
  33.4278553  23.3692753  75.5871313  34.2448553  22.3362753  75.9691313
  34.0968553  23.1022753  75.8971313  37.3448553  28.4702753  74.6191313
  36.9528553  28.0992753  73.9331313  37.2648553  27.8722753  75.2481313
  37.2748553  28.3272753  74.6101313  47.2648553  26.3422753  80.6601313
  47.3448553  26.3462753  79.7911313  46.6808553  25.7102753  80.8091313
  47.1898553  26.2492753  80.5541313  36.9718553  30.1112753  78.5191313
  37.5798553  29.9412753  79.1221313  36.2208553  29.9712753  78.9401313
  36.9508553  30.0652753  78.6701313  41.2538553  19.4462753  78.4681313
  41.1838553  20.1232753  77.9221313  41.9948553  19.0582753  78.2191313
  41.3528553  19.4892753  78.3501313  35.8628553  33.2022753  74.5961313
  36.3298553  33.2862753  73.8641313  36.3178553  32.6242753  75.0651313
  35.9988553  33.1292753  74.5571313  34.4028553  32.1502753  85.6951313
  34.5318553  31.8702753  86.5111313  33.7928553  31.6092753  85.3861313
  34.3318553  32.0292753  85.7701313  35.8488553  26.6712753  79.8971313
  35.3868553  26.2792753  79.2701313  36.5488553  26.1582753  79.9891313
  35.8838553  26.5382753  79.8181313  40.3568553  22.2812753  85.2441313
  41.0348553  22.2992753  84.6951313  40.3118553  21.4452753  85.4891313
  40.4498553  22.1602753  85.1991313  40.9588553  32.8672753  88.0251313
  41.0968553  33.6272753  87.6181313  41.7498553  32.5022753  88.0521313
  41.0958553  32.9262753  87.9691313  37.8498553  24.7712753  79.9201313
  38.6668553  24.5842753  80.1631313  37.3728553  24.1572753  80.3161313
  37.8998553  24.6532753  80.0151313  42.0538553  30.7522753  82.5301313
  42.4018553  29.9532753  82.5601313  42.7188553  31.2562753  82.2751313
  42.2038553  30.7082753  82.4971313  42.1108553  30.2012753  78.7411313
  42.4418553  29.5572753  79.2271313  42.3508553  29.9902753  77.9301313
  42.1948553  30.0752753  78.6931313  38.4468553  19.8652753  79.1861313
  38.1508553  20.3662753  78.5361313  39.3138553  19.9432753  79.1291313
  38.5308553  19.9512753  79.0821313  41.4258553  19.0072753  81.4091313
  41.4988553  19.8672753  81.5381313  41.3878553  18.9322753  80.5411313
  41.4308553  19.1232753  81.3001313  34.3048553  24.4322753  82.9101313
  34.0488553  25.2632753  82.8351313  33.6408553  24.0492753  83.3271313
  34.1688553  24.4982753  82.9611313  34.2148553  34.1422753  80.8101313
  33.6228553  34.7002753  80.4971313  34.6408553  33.8732753  80.0981313
  34.1908553  34.1842753  80.6591313  40.0548553  31.9862753  78.2901313
  39.4758553  31.7112753  78.8821313  40.6788553  31.3772753  78.3151313
  40.0618553  31.8562753  78.3811313  46.1978553  34.2742753  75.8121313
  46.9248553  34.7462753  75.9141313  46.4268553  33.4802753  76.0921313
  46.3398553  34.2272753  75.8691313  44.3658553  34.6662753  77.8021313
  44.5798553  35.1932753  78.4641313  45.1328553  34.4922753  77.4231313
  44.5108553  34.7182753  77.8441313  37.3338553  19.2492753  83.4011313
  36.8128553  18.6212753  83.0931313  37.9248553  18.8122753  83.8721313
  37.3448553  19.0912753  83.4251313  35.7598553  32.8122753  78.7411313
  36.4158553  32.2372753  78.7561313  36.1488553  33.5612753  78.5201313
  35.9148553  32.8372753  78.7111313  51.4928553  21.9062753  80.0031313
  51.1468553  22.5842753  80.4291313  50.8568553  21.3082753  80.0191313
  51.3478553  21.9182753  80.0681313  46.8048553  34.6762753  86.1071313
  47.5488553  35.1322753  86.0971313  46.6838553  34.4622753  85.2701313
  46.8968553  34.7122753  85.9821313  36.5778553  31.2992753  82.2411313
  37.0008553  30.9432753  81.5671313  36.9018553  30.8772753  82.9331313
  36.6878553  31.1842753  82.2441313  39.8088553  34.1512753  81.5371313
  40.6528553  34.2552753  81.3421313  39.5118553  34.9692753  81.6051313
  39.8898553  34.2872753  81.5181313  43.6158553  23.5482753  79.6241313
  43.9028553  23.3162753  78.8341313  44.3478553  23.6272753  80.0931313
  43.7658553  23.5252753  79.5771313  44.3378553  23.8872753  74.7451313
  44.6188553  24.6752753  74.9941313  43.5618553  24.0522753  74.3821313
  44.2648553  24.0282753  74.7281313  48.3788553  35.8612753  76.2121313
  49.0438553  35.7132753  75.6671313  48.7388553  35.7782753  77.0021313
  48.5308553  35.8272753  76.2481313  38.8068553  35.3702753  87.2771313
  39.0988553  35.3032753  88.0971313  38.1808553  34.7652753  87.2321313
  38.7578553  35.2712753  87.3921313  51.1678553  20.2292753  85.3721313
  51.9248553  20.3012753  84.9441313  51.2308553  19.4562753  85.7711313
  51.2888553  20.1262753  85.3671313  43.1968553  32.0582753  74.5611313
  43.0158553  32.6032753  75.2181313  43.9628553  32.3482753  74.2601313
  43.2828553  32.1822753  74.6141313  46.7038553  19.9542753  75.6151313
  47.2438553  19.2722753  75.6911313  46.7658553  20.3522753  76.3891313
  46.7928553  19.9122753  75.7411313  34.6578553  21.1222753  78.1841313
  34.5438553  20.2582753  78.2151313  34.1828553  21.4162753  78.8541313
  34.5708553  21.0382753  78.2871313  36.7998553  33.5322753  86.3991313
  36.1018553  33.0242753  86.5251313  37.0598553  33.3272753  85.5911313
  36.7348553  33.4272753  86.2981313  43.9618553  22.3302753  76.9291313
  43.4538553  21.6682753  76.6751313  44.0138553  22.8342753  76.2191313
  43.8948553  22.3072753  76.7871313  44.5108553  35.0252753  87.3091313
  45.2788553  34.9452753  86.9031313  43.9278553  34.9042753  86.6711313
  44.5378553  34.9952753  87.1551313  50.7878553  35.6282753  80.2101313
  50.3328553  36.3452753  80.4111313  50.1738553  35.0572753  79.9681313
  50.6298553  35.6502753  80.2041313  42.5598553  21.6382753  81.3421313
  42.6338553  22.2062753  80.6841313  42.6808553  22.1302753  82.0521313
  42.5878553  21.7952753  81.3501313  47.7848553  31.4732753  79.7541313
  48.4858553  30.9912753  79.9431313  47.1248553  30.9042753  79.7991313
  47.7908553  31.3182753  79.7881313  37.1678553  17.4612753  79.6901313
  37.7038553  18.1492753  79.6801313  37.1708553  17.1872753  78.8621313
  37.2468553  17.5222753  79.5661313  40.1238553  27.8942753  83.7151313
  40.2958553  27.6842753  84.5441313  39.4688553  27.3602753  83.4991313
  40.0528553  27.7842753  83.8061313  46.3518553  21.8082753  87.2301313
  46.2568553  22.1272753  88.0361313  45.7588553  21.1692753  87.1921313
  46.2498553  21.7602753  87.3441313  40.8738553  27.8322753  86.3051313
  40.9268553  28.6792753  86.5071313  40.5888553  27.4622753  87.0421313
  40.8398553  27.9022753  86.4431313  47.0508553  28.5272753  85.4351313
  46.5368553  28.1152753  86.0061313  46.9248553  29.3712753  85.6161313
  46.9568553  28.5912753  85.5461313  47.6078553  17.7522753  80.0661313
  47.6568553  17.4342753  80.8771313  47.9308553  17.1082753  79.5731313
  47.6628553  17.6102753  80.1131313  37.6158553  21.2712753  81.3441313
  37.8878553  20.8412753  80.6361313  37.4398553  20.6352753  81.9151313
  37.6298553  21.1142753  81.3241313  50.3038553  28.9662753  75.5621313
  50.4228553  28.6792753  76.3771313  51.1108553  28.9872753  75.2321313
  50.4398553  28.9272753  75.6341313  37.4398553  28.6982753  80.8931313
  38.2908553  28.6182753  80.7201313  37.0828553  28.0162753  80.4811313
  37.5128553  28.5852753  80.8061313  36.2068553  35.4232753  82.1301313
  35.5338553  34.9252753  81.8851313  36.6098553  35.6082753  81.3791313
  36.1668553  35.3772753  81.9831313  35.7568553  22.3732753  84.4261313
  36.5998553  22.5932753  84.3831313  35.3678553  22.9462753  83.8951313
  35.8238553  22.4902753  84.3411313  48.1988553  25.5032753  75.1471313
  47.9788553  26.2342753  74.7251313  47.7508553  25.5542753  75.8941313
  48.0998553  25.6182753  75.1951313  39.8078553  28.7052753  79.1281313
  40.5208553  29.2002753  79.2181313  40.0298553  28.1382753  78.5021313
  39.9458553  28.6942753  79.0491313  52.3858553  20.3642753  74.6001313
  51.7238553  19.7962753  74.6231313  52.1928553  20.8762753  73.9201313
  52.2598553  20.3562753  74.5031313  33.9638553  30.3482753  82.4481313
  33.2968553  30.8362753  82.7241313  34.6438553  30.8932753  82.4771313
  33.9658553  30.5002753  82.4931313  52.7088553  24.7422753  87.1561313
  52.9238553  23.9422753  86.8801313  51.8588553  24.8022753  86.9671313
  52.6148553  24.6332753  87.0871313  34.0298553  27.0322753  77.5511313
  33.8448553  26.1932753  77.7031313  34.6888553  26.9962753  76.9811313
  34.0998553  26.9032753  77.4891313  50.3878553  19.9222753  76.8791313
  51.1338553  19.5152753  77.0781313  50.6508553  20.6372753  76.4541313
  50.5368553  19.9682753  76.8461313  44.3308553  32.4082753  81.4551313
  43.8078553  33.0422753  81.1621313  44.6408553  32.0442753  80.7261313
  44.2988553  32.4482753  81.3041313  34.2018553  31.1962753  77.1261313
  34.7538553  31.7652753  77.4901313  33.9698553  30.6812753  77.7911313
  34.2488553  31.2042753  77.2781313  38.4058553  30.1962753  84.2151313
  38.8728553  30.4852753  84.8931313  38.9778553  29.7182753  83.7611313
  38.5598553  30.1682753  84.2481313  46.8418553  22.2102753  81.9521313
  47.1858553  22.3622753  82.7391313  46.3888553  21.4722753  82.0651313
  46.8258553  22.1232753  82.0851313  34.0318553  29.6452753  74.7541313
  34.7878553  29.2132753  74.8121313  34.0468553  30.1772753  75.4451313
  34.1458553  29.6602753  74.8651313  34.9718553  27.8662753  82.7591313
  35.4028553  27.7372753  82.0121313  34.7668553  28.7142753  82.7331313
  35.0048553  27.9722753  82.6451313  41.3178553  21.4302753  76.4091313
  41.3158553  21.3132753  75.5441313  41.1368553  22.2782753  76.5011313
  41.2908553  21.5382753  76.2951313  50.3718553  33.8572753  87.9061313
  49.7008553  34.3712753  88.1241313  50.4348553  33.9572753  87.0421313
  50.2818553  33.9482753  87.8111313  39.0558553  31.3822753  81.0411313
  39.1818553  32.2252753  81.2281313  39.7238553  30.9832753  81.4371313
  39.1738553  31.4482753  81.1271313  37.6708553  24.2622753  76.0431313
  37.5428553  23.8142753  76.7811313  37.0888553  23.9202753  75.4911313
  37.5658553  24.1452753  76.0711313  37.8378553  26.0922753  82.6421313
  37.0568553  26.0332753  82.2591313  37.9098553  25.3402753  83.0791313
  37.7328553  25.9732753  82.6501313  38.2678553  25.8292753  86.1101313
  38.2928553  25.1542753  85.5591313  37.6218553  26.3252753  85.7981313
  38.1768553  25.8022753  85.9831313  48.1628553  23.5422753  84.5061313
  47.5008553  23.8702753  84.9691313  48.3498553  24.1762753  83.9371313
  48.0928553  23.6842753  84.4901313  42.3678553  34.6062753  85.5021313
  42.0908553  33.9652753  84.9791313  42.1598553  35.3322753  85.0641313
  42.2968553  34.6192753  85.3601313  44.8078553  19.4482753  87.9351313
  44.9568553  18.6232753  87.6921313  45.1868553  19.5032753  88.7191313
  44.8858553  19.3342753  88.0151313  46.3558553  21.5112753  78.0171313
  46.8458553  22.2282753  77.9401313  45.5658553  21.7722753  77.7541313
  46.3118553  21.6552753  77.9671313  42.9378553  22.9812753  83.7421313
  43.4178553  23.6802753  83.9501313  43.3108553  22.3342753  84.1931313
  43.0638553  22.9892753  83.8391313  45.1268553  26.1502753  76.0161313
  45.1188553  26.8722753  75.5261313  44.4878553  26.2852753  76.5931313
  45.0318553  26.2772753  76.0291313  50.0988553  30.0202753  79.9971313
  50.4548553  29.6702753  80.7121313  50.0908553  29.3592753  79.4271313
  50.1508553  29.8702753  80.0181313  46.1438553  33.0862753  83.8411313
  45.5408553  32.7902753  83.2841313  46.6888553  33.5382753  83.3321313
  46.1348553  33.1092753  83.6831313  46.1568553  29.9372753  83.2411313
  45.3598553  30.1612753  83.5151313  46.4148553  29.3432753  83.8261313
  46.0768553  29.8822753  83.3681313  40.0488553  34.7492753  77.6891313
  39.9018553  33.9732753  78.0601313  40.7378553  34.6022753  77.1741313
  40.1288553  34.6122753  77.6681313  39.7198553  18.4922753  75.6771313
  39.8168553  18.3852753  76.5381313  39.0118553  18.9982753  75.6121313
  39.6298553  18.5512753  75.7951313  42.3408553  34.2652753  76.0911313
  42.9628553  34.4282753  76.6811313  42.3768553  34.9562753  75.5591313
  42.4378553  34.3912753  76.1001313  49.4168553  27.9352753  88.0871313
  49.4718553  28.0602753  87.2251313  50.1698553  28.2552753  88.3891313
  49.5358553  28.0002753  88.0041313  36.8418553  26.7992753  76.9201313
  37.1658553  26.0202753  76.6981313  37.4878553  27.1672753  77.3751313
  36.9848553  26.7382753  76.9541313  45.1478553  27.7412753  87.6871313
  44.9928553  28.3512753  88.2911313  45.6818553  27.1832753  88.0931313
  45.2038553  27.7492753  87.8361313  33.8388553  18.4602753  77.8881313
  33.9678553  17.7522753  77.3961313  33.4718553  18.1422753  78.6131313
  33.8038553  18.3082753  77.9231313  43.5318553  26.1412753  78.3451313
  43.5908553  26.7912753  78.9241313  43.3428553  25.4452753  78.8361313
  43.5128553  26.1342753  78.5031313  48.7578553  30.4702753  84.2141313
  48.2788553  30.7682753  83.5481313  48.4018553  29.6942753  84.3921313
  48.6348553  30.3992753  84.1421313  38.0278553  20.6582753  74.8571313
  37.5168553  20.7112753  74.1511313  38.8118553  20.8982753  74.5611313
  38.0678553  20.7012753  74.7091313  42.7548553  28.1882753  82.7761313
  41.9078553  27.9942753  82.8571313  43.0788553  28.0232753  83.5691313
  42.6768553  28.1352753  82.9051313  39.5068553  34.9182753  73.6621313
  39.9458553  34.2212753  73.9501313  39.7138553  35.5422753  74.2351313
  39.6028553  34.9072753  73.7891313  36.6028553  27.8812753  85.0921313
  37.3248553  28.3692753  85.0551313  36.3328553  27.8512753  84.2631313
  36.6698553  27.9492753  84.9641313  39.8328553  23.0522753  81.8271313
  40.6788553  22.8622753  81.9251313  39.4628553  22.2752753  81.6891313
  39.9028553  22.9092753  81.8211313  52.4498553  34.6362753  76.1541313
  53.1438553  34.1692753  75.9061313  51.9108553  34.0382753  76.4911313
  52.4728553  34.4782753  76.1671313  34.6538553  24.3902753  78.4821313
  35.1428553  24.0982753  79.1431313  34.7828553  23.7972753  77.8551313
  34.7448553  24.2592753  78.4871313  49.6888553  27.4122753  85.3331313
  49.6818553  26.6362753  85.7311313  48.8478553  27.6462753  85.3261313
  49.5638553  27.3322753  85.3911313  39.1788553  25.8242753  73.9681313
  38.5688553  25.4192753  74.4421313  38.7928553  25.9422753  73.1951313
  39.0318553  25.7812753  73.9241313  50.9448553  27.4832753  82.7701313
  50.6588553  27.8842753  83.4901313  51.8048553  27.4212753  82.8971313
  51.0298553  27.5332753  82.8951313  40.6338553  24.2852753  76.6781313
  40.9058553  25.1112753  76.7451313  39.7708553  24.3602753  76.5821313
  40.5468553  24.4182753  76.6731313  34.1138553  20.2552753  83.2141313
  34.1578553  20.5992753  82.4131313  34.8688553  20.4922753  83.5811313
  34.2318553  20.3412753  83.1501313  52.0758553  33.1162753  83.2991313
  52.3658553  33.3732753  82.5181313  52.7708553  33.2122753  83.8181313
  52.2218553  33.1682753  83.2601313  48.6808553  31.7192753  75.2811313
  49.0148553  30.9132753  75.3161313  47.9258553  31.6472753  75.7111313
  48.6188553  31.5892753  75.3501313  49.1628553  23.5532753  80.9401313
  48.4178553  23.2302753  81.2581313  49.1648553  24.3792753  81.2201313
  49.0528553  23.6272753  81.0281313  51.6028553  29.5132753  88.6921313
  52.2308553  28.9642753  88.4361313  51.5418553  30.0782753  88.0301313
  51.6868553  29.5162753  88.5561313  46.0548553  29.5942753  74.6841313
  46.7388553  29.0802753  74.5151313  45.6378553  29.6402753  73.9191313
  46.0938553  29.5252753  74.5461313  40.7368553  30.7442753  85.9881313
  40.4388553  31.3362753  86.5551313  40.7918553  31.1862753  85.2391313
  40.7008553  30.8972753  85.9611313  48.0748553  19.8832753  88.4011313
  48.8188553  20.3352753  88.3381313  47.5088553  20.3532753  87.9321313
  48.1018553  20.0202753  88.3231313  43.2528553  27.1672753  85.4791313
  43.7288553  27.5412753  86.1071313  42.4298553  27.3012753  85.7381313
  43.2018553  27.2422753  85.6101313  39.9628553  22.7702753  88.2201313
  40.1238553  22.0262753  88.6471313  39.9178553  22.5212753  87.3851313
  39.9798553  22.6232753  88.1601313  42.5168553  34.5602753  80.7071313
  43.0628553  35.2392753  80.7611313  42.1668553  34.6422753  79.9121313
  42.5458553  34.6732753  80.5971313  49.3598553  17.8632753  86.0711313
  49.0798553  18.6882753  86.0271313  50.0758553  17.9162753  86.5671313
  49.4248553  17.9932753  86.1381313  41.7148553  18.5782753  88.1001313
  42.4198553  18.8982753  87.6981313  41.9558553  17.7712753  88.3271313
  41.8538553  18.5062753  88.0741313  40.6998553  32.7882753  84.0961313
  40.0758553  33.3702753  83.9141313  40.9478553  32.5022753  83.3101313
  40.6438553  32.8322753  83.9531313  50.7808553  24.1182753  74.9281313
  51.1588553  24.7952753  74.5281313  49.9388553  24.3422753  74.9591313
  50.7118553  24.2512753  74.8731313  42.2938553  27.5642753  74.0111313
  41.4888553  27.3872753  73.7261313  42.2608553  28.4152753  74.2031313
  42.1698553  27.6632753  73.9981313  38.2238553  23.6312753  84.1611313
  38.6638553  23.5282753  83.4151313  38.7688553  23.3182753  84.7661313
  38.3688553  23.5702753  84.1401313  45.9278553  24.2702753  86.0511313
  46.2298553  24.6902753  86.7541313  45.9638553  23.4302753  86.2831313
  45.9778553  24.2082753  86.1891313  48.4758553  23.7172753  78.3031313
  48.6828553  23.5162753  79.1271313  49.2318553  23.9852753  77.9611313
  48.6178553  23.7272753  78.3741313  41.7708553  18.6162753  84.2081313
  40.9448553  18.4672753  84.4451313  41.7308553  18.6512753  83.3371313
  41.6428553  18.5992753  84.1141313  49.4978553  19.8002753  79.7771313
  48.7838553  19.3292753  79.9481313  49.3358553  20.1412753  78.9911313
  49.3688553  19.7812753  79.6861313  49.9408553  27.7442753  78.1571313
  50.4168553  27.0152753  78.1091313  49.1198553  27.4582753  78.0811313
  49.8898553  27.5942753  78.1381313  39.2418553  35.8632753  84.3131313
  39.2528553  35.9222753  85.1831313  38.8168553  35.1162753  84.1631313
  39.1808553  35.7612753  84.4191313  37.3998553  21.7582753  77.4681313
  37.5258553  21.4292753  76.6701313  36.5878553  21.5092753  77.6671313
  37.2988553  21.6732753  77.3801313  46.1568553  28.9112753  80.5121313
  46.2328553  29.2522753  81.3111313  46.3258553  28.0642753  80.6331313
  46.1928553  28.8362753  80.6481313  43.6788553  28.1852753  80.0771313
  43.3808553  27.8702753  80.8341313  44.3738553  28.6582753  80.3121313
  43.7378553  28.2082753  80.2241313  43.9008553  32.3032753  88.1041313
  44.5878553  32.1892753  88.6291313  44.0348553  33.0942753  87.7601313
  44.0218553  32.4032753  88.1311313  46.5898553  25.5772753  88.4911313
  46.3348553  24.8582753  88.9131313  47.4108553  25.6932753  88.7611313
  46.6738553  25.4882753  88.5931313  47.6078553  35.1412753  82.6071313
  47.1568553  35.7842753  82.9861313  48.3158553  35.0622753  83.1121313
  47.6458553  35.2242753  82.7381313  44.3088553  30.2312753  85.5371313
  43.6148553  30.6332753  85.8801313  44.9858553  30.6642753  85.8761313
  44.3058553  30.3542753  85.6381313  37.3768553  23.7692753  87.8841313
  37.7518553  24.3882753  87.3971313  38.0508553  23.2952753  88.1691313
  37.5318553  23.7912753  87.8541313  35.1518553  22.2172753  87.1591313
  35.2288553  22.0482753  86.3061313  35.8978553  22.6232753  87.3561313
  35.2728553  22.2522753  87.0621313  50.7108553  24.8572753  77.5991313
  50.8138553  24.7992753  76.7351313  51.4518553  24.5252753  77.9171313
  50.8358553  24.8002753  77.5181313  44.6308553  31.8222753  78.7061313
  44.4258553  32.6552753  78.5471313  43.8558553  31.4402753  78.8281313
  44.4858553  31.8892753  78.7011313  49.8128553  25.0032753  86.9551313
  49.8108553  24.1402753  87.0791313  49.8798553  25.3272753  87.7621313
  49.8228553  24.9232753  87.0921313  34.5488553  27.4432753  87.3831313
  34.8688553  27.6622753  86.6021313  34.4488553  26.5782753  87.3281313
  34.5808553  27.3482753  87.2601313  36.0048553  23.3792753  74.0011313
  35.3328553  23.3932753  74.5571313  36.0998553  22.5312753  73.8171313
  35.9198553  23.2562753  74.0561313  44.6858553  19.9932753  81.5911313
  43.9858553  20.5112753  81.5351313  44.7238553  19.6132753  80.8071313
  44.5878553  20.0142753  81.4671313  39.9928553  32.0842753  75.1151313
  40.4338553  32.1642753  75.8631313  39.1878553  31.8682753  75.3731313
  39.9388553  32.0642753  75.2641313  48.2838553  20.5092753  84.3911313
  49.1388553  20.6082753  84.5361313  47.9148553  21.0622753  84.9561313
  48.3558553  20.6062753  84.4961313  39.3118553  26.7352753  88.7681313
  38.9158553  27.5092753  88.8431313  38.9058553  26.3622753  88.0921313
  39.1938553  26.7942753  88.6791313  48.5878553  25.7892753  82.8821313
  49.2538553  26.3302753  83.0421313  48.2428553  26.1002753  82.1431313
  48.6348553  25.9152753  82.7971313  48.9008553  33.8552753  78.6891313
  48.7268553  33.2012753  79.2391313  49.6138553  33.5842753  78.2661313
  48.9808553  33.7182753  78.7081313  37.3218553  31.1542753  75.7161313
  37.0778553  30.8472753  76.4961313  37.2888553  30.4512753  75.2001313
  37.2808553  31.0052753  75.7551313  40.1408553  29.3992753  74.4591313
  39.3228553  29.1312753  74.5991313  40.1128553  30.2512753  74.6441313
  40.0158553  29.4862753  74.5071313  39.7408553  19.7122753  86.2181313
  38.8768553  19.7962753  86.2981313  39.9608553  19.1982753  86.8871313
  39.6458553  19.6492753  86.3291313  51.7588553  18.3472753  87.5471313
  51.7068553  18.3032753  88.4171313  52.4458553  17.8442753  87.3571313
  51.8528553  18.2672753  87.6471313  43.8438553  20.4602753  84.5921313
  43.1068553  20.0062753  84.7051313  44.4148553  20.0582753  85.1151313
  43.8188553  20.3332753  84.6861313  46.5758553  31.3082753  86.3801313
  46.7818553  31.6092753  87.1721313  46.5148553  32.0302753  85.8951313
  46.5968553  31.4592753  86.4251313  42.1428553  18.0412753  74.4231313
  42.2208553  18.2882753  73.5901313  41.3998553  18.4182753  74.6811313
  42.0448553  18.1332753  74.3381313  51.3878553  29.9472753  85.8381313
  51.3558553  29.0852753  85.7031313  50.6948553  30.2492753  85.4041313
  51.2808553  29.8642753  85.7541313  49.4928553  33.2072753  84.6351313
  50.0198553  33.1242753  83.9441313  49.1018553  32.4292753  84.6891313
  49.5128553  33.0802753  84.5411313  36.9608553  19.7952753  86.8661313
  36.6178553  19.0282753  86.6321313  36.2658553  20.3192753  86.9301313
  36.8078553  19.7592753  86.8411313  46.0068553  18.6512753  83.8431313
  46.6768553  19.1952753  83.9701313  45.5038553  19.0752753  83.2701313
  46.0318553  18.7942753  83.7771313  45.3658553  24.4592753  81.3361313
  45.9168553  23.8522753  81.6361313  44.9408553  24.7222753  82.0511313
  45.3848553  24.4082753  81.4851313  35.6138553  23.1092753  80.8221313
  35.2458553  23.4112753  81.5531313  36.1478553  22.4802753  81.1061313
  35.6378553  23.0612753  80.9721313  35.3018553  31.5172753  88.3331313
  34.7278553  31.9332753  88.8421313  36.0348553  31.9822753  88.4281313
  35.3258553  31.6472753  88.4221313  47.3358553  26.2902753  77.8981313
  47.4038553  25.4402753  78.0791313  46.5128553  26.3762753  77.6201313
  47.2238553  26.1772753  77.8841313  37.0878553  34.7842753  77.1081313
  36.9428553  34.9402753  76.2621313  37.9538553  34.8632753  77.1861313
  37.1948553  34.8192753  76.9951313  41.2548553  27.1812753  76.8361313
  41.3548553  27.3202753  75.9811313  42.0728553  27.1212753  77.1321313
  41.3898553  27.1922753  76.7531313  50.4148553  35.2452753  74.3161313
  51.0518553  35.1112753  74.8971313  50.0738553  34.4512753  74.1991313
  50.4588553  35.1082753  74.3841313  46.4898553  31.5102753  76.6381313
  46.2388553  31.3822753  77.4641313  46.1728553  30.8152753  76.2171313
  46.4058553  31.3892753  76.6981313  51.1338553  23.1682753  84.7581313
  50.3008553  23.4182753  84.6861313  51.0778553  22.3282753  84.9871313
  51.0028553  23.0812753  84.7811313  37.7748553  33.5992753  83.5851313
  37.6958553  32.7892753  83.2691313  37.3308553  34.0862753  83.0131313
  37.6978553  33.5512753  83.4541313  43.3758553  29.7182753  76.0681313
  44.0928553  29.3712753  75.7121313  43.3418553  30.5182753  75.7201313
  43.4768553  29.7852753  75.9641313  35.3468553  35.8432753  87.1661313
  35.8398553  35.7872753  87.8841313  35.5348553  35.1102753  86.7311313
  35.4478553  35.7262753  87.2081313  44.7848553  18.3592753  60.3068903
  44.5398553  18.8472753  59.6268903  45.6478553  18.2862753  60.2068903
  44.8758553  18.4202753  60.1918903  50.7378553  32.7162753  57.9488903
  51.4388553  32.1972753  57.9448903  50.1508553  32.2712753  57.4798903
  50.7548553  32.5732753  57.8788903  34.2058553  23.2072753  56.9408903
  33.4278553  23.3692753  56.5808903  34.2448553  22.3362753  56.9628903
  34.0968553  23.1022753  56.8908903  47.2648553  26.3422753  61.6538903
  47.3448553  26.3462753  60.7848903  46.6808553  25.7102753  61.8028903
  47.1898553  26.2492753  61.5478903  41.2538553  19.4462753  59.4618903
  41.1838553  20.1232753  58.9158903  41.9948553  19.0582753  59.2128903
  41.3528553  19.4892753  59.3438903  40.9768553  29.6752753  71.7558903
  40.7408553  29.6722753  72.5958903  40.2288553  29.5272753  71.3318903
  40.8308553  29.6522753  71.8168903  42.1108553  30.2012753  59.7348903
  42.4418553  29.5572753  60.2208903  42.3508553  29.9902753  58.9238903
  42.1948553  30.0752753  59.6868903  44.0788553  24.3322753  71.0738903
  43.2308553  24.2332753  70.8958903  44.1078553  25.0772753  71.5278903
  43.9578553  24.4282753  71.1148903  38.4468553  19.8652753  60.1798903
  38.1508553  20.3662753  59.5298903  39.3138553  19.9432753  60.1228903
  38.5308553  19.9512753  60.0758903  48.6368553  17.2922753  70.1878903
  48.4788553  18.0612753  69.8058903  47.8648553  17.0722753  70.5318903
  48.4988553  17.3732753  70.1828903  41.4258553  19.0072753  62.4028903
  41.4988553  19.8672753  62.5318903  41.3878553  18.9322753  61.5348903
  41.4308553  19.1232753  62.2938903  46.0988553  21.9332753  54.7018903
  45.6488553  22.6142753  55.0088903  46.2128553  21.4292753  55.4048903
  46.0498553  21.9592753  54.8508903  46.1978553  34.2742753  56.8058903
  46.9248553  34.7462753  56.9078903  46.4268553  33.4802753  57.0858903
  46.3398553  34.2272753  56.8628903  44.3658553  34.6662753  58.7958903
  44.5798553  35.1932753  59.4578903  45.1328553  34.4922753  58.4168903
  44.5108553  34.7182753  58.8378903  37.3338553  19.2492753  64.3948903
  36.8128553  18.6212753  64.0868903  37.9248553  18.8122753  64.8658903
  37.3448553  19.0912753  64.4188903  40.6398553  21.3822753  73.6928903
  40.7568553  20.9282753  72.9568903  40.9278553  22.1802753  73.4898903
  40.6998553  21.4332753  73.5538903  51.4928553  21.9062753  60.9968903
  51.1468553  22.5842753  61.4228903  50.8568553  21.3082753  61.0128903
  51.3478553  21.9182753  61.0618903  46.8048553  34.6762753  67.1008903
  47.5488553  35.1322753  67.0908903  46.6838553  34.4622753  66.2638903
  46.8968553  34.7122753  66.9758903  36.3728553  20.9792753  72.6768903
  35.5948553  20.5892753  72.6048903  36.8638553  20.5672753  72.0858903
  36.3298553  20.8602753  72.5788903  43.0218553  18.6222753  71.8448903
  43.1998553  17.8132753  71.5698903  42.8788553  19.0632753  71.1058903
  43.0268553  18.5682753  71.6948903  43.6158553  23.5482753  60.6178903
  43.9028553  23.3162753  59.8278903  44.3478553  23.6272753  61.0868903
  43.7658553  23.5252753  60.5708903  44.3378553  23.8872753  55.7388903
  44.6188553  24.6752753  55.9878903  43.5618553  24.0522753  55.3758903
  44.2648553  24.0282753  55.7218903  48.3788553  35.8612753  57.2058903
  49.0438553  35.7132753  56.6608903  48.7388553  35.7782753  57.9958903
  48.5308553  35.8272753  57.2418903  38.8068553  35.3702753  68.2708903
  39.0988553  35.3032753  69.0908903  38.1808553  34.7652753  68.2258903
  38.7578553  35.2712753  68.3858903  51.1678553  20.2292753  66.3658903
  51.9248553  20.3012753  65.9378903  51.2308553  19.4562753  66.7648903
  51.2888553  20.1262753  66.3608903  33.7208553  21.5272753  70.2628903
  33.7168553  22.1142753  70.9088903  34.3148553  21.8392753  69.7058903
  33.8078553  21.6602753  70.2758903  46.0588553  31.8612753  70.8048903
  46.0248553  32.2432753  71.5888903  46.9128553  31.8192753  70.6338903
  46.1798553  31.9112753  70.8958903  43.1968553  32.0582753  55.5548903
  43.0158553  32.6032753  56.2118903  43.9628553  32.3482753  55.2538903
  43.2828553  32.1822753  55.6078903  46.7038553  19.9542753  56.6088903
  47.2438553  19.2722753  56.6848903  46.7658553  20.3522753  57.3828903
  46.7928553  19.9122753  56.7348903  34.6578553  21.1222753  59.1778903
  34.5438553  20.2582753  59.2088903  34.1828553  21.4162753  59.8478903
  34.5708553  21.0382753  59.2808903  43.9618553  22.3302753  57.9228903
  43.4538553  21.6682753  57.6688903  44.0138553  22.8342753  57.2128903
  43.8948553  22.3072753  57.7808903  44.5108553  35.0252753  68.3028903
  45.2788553  34.9452753  67.8968903  43.9278553  34.9042753  67.6648903
  44.5378553  34.9952753  68.1488903  50.7878553  35.6282753  61.2038903
  50.3328553  36.3452753  61.4048903  50.1738553  35.0572753  60.9618903
  50.6298553  35.6502753  61.1978903  42.5598553  21.6382753  62.3358903
  42.6338553  22.2062753  61.6778903  42.6808553  22.1302753  63.0458903
  42.5878553  21.7952753  62.3438903  47.7848553  31.4732753  60.7478903
  48.4858553  30.9912753  60.9368903  47.1248553  30.9042753  60.7928903
  47.7908553  31.3182753  60.7818903  38.1608553  32.3832753  69.9598903
  39.0018553  32.4462753  69.7378903  38.1238553  32.7802753  70.7358903
  38.2798553  32.4512753  70.0418903  37.1678553  17.4612753  60.6838903
  37.7038553  18.1492753  60.6738903  37.1708553  17.1872753  59.8558903
  37.2468553  17.5222753  60.5598903  46.3518553  21.8082753  68.2238903
  46.2568553  22.1272753  69.0298903  45.7588553  21.1692753  68.1858903
  46.2498553  21.7602753  68.3378903  47.0508553  28.5272753  66.4288903
  46.5368553  28.1152753  66.9998903  46.9248553  29.3712753  66.6098903
  46.9568553  28.5912753  66.5398903  47.6078553  17.7522753  61.0598903
  47.6568553  17.4342753  61.8708903  47.9308553  17.1082753  60.5668903
  47.6628553  17.6102753  61.1068903  33.6948553  32.2032753  73.5098903
  34.4508553  32.5522753  73.7678903  33.8718553  31.3502753  73.4528903
  33.8328553  32.1282753  73.5398903  50.0718553  21.9882753  69.3678903
  50.8438553  21.7632753  69.7048903  49.5968553  22.2052753  70.0678903
  50.1158553  21.9872753  69.5208903  37.6158553  21.2712753  62.3378903
  37.8878553  20.8412753  61.6298903  37.4398553  20.6352753  62.9088903
  37.6298553  21.1142753  62.3178903  50.3038553  28.9662753  56.5558903
  50.4228553  28.6792753  57.3708903  51.1108553  28.9872753  56.2258903
  50.4398553  28.9272753  56.6278903  35.7568553  22.3732753  65.4198903
  36.5998553  22.5932753  65.3768903  35.3678553  22.9462753  64.8888903
  35.8238553  22.4902753  65.3348903  52.5378553  33.4752753  70.8098903
  51.8558553  33.7852753  70.3628903  52.1688553  33.0172753  71.4548903
  52.3818553  33.4532753  70.8388903  48.1988553  25.5032753  56.1408903
  47.9788553  26.2342753  55.7188903  47.7508553  25.5542753  56.8878903
  48.0998553  25.6182753  56.1888903  52.3858553  20.3642753  55.5938903
  51.7238553  19.7962753  55.6168903  52.1928553  20.8762753  54.9138903
  52.2598553  20.3562753  55.4968903  41.6108553  24.0582753  73.5378903
  41.1268553  24.6352753  73.9798903  41.5828553  24.3532753  72.7168903
  41.5348553  24.1872753  73.4818903  52.7088553  24.7422753  68.1498903
  52.9238553  23.9422753  67.8738903  51.8588553  24.8022753  67.9608903
  52.6148553  24.6332753  68.0808903  50.3878553  19.9222753  57.8728903
  51.1338553  19.5152753  58.0718903  50.6508553  20.6372753  57.4478903
  50.5368553  19.9682753  57.8398903  46.8418553  22.2102753  62.9458903
  47.1858553  22.3622753  63.7328903  46.3888553  21.4722753  63.0588903
  46.8258553  22.1232753  63.0788903  41.3178553  21.4302753  57.4028903
  41.3158553  21.3132753  56.5378903  41.1368553  22.2782753  57.4948903
  41.2908553  21.5382753  57.2888903  50.3718553  33.8572753  68.8998903
  49.7008553  34.3712753  69.1178903  50.4348553  33.9572753  68.0358903
  50.2818553  33.9482753  68.8048903  37.1858553  24.8652753  71.8968903
  36.6498553  24.3592753  72.3648903  37.2058553  24.4752753  71.1168903
  37.1088553  24.7322753  71.8508903  48.1628553  23.5422753  65.4998903
  47.5008553  23.8702753  65.9628903  48.3498553  24.1762753  64.9308903
  48.0928553  23.6842753  65.4838903  44.8078553  19.4482753  68.9288903
  44.9568553  18.6232753  68.6858903  45.1868553  19.5032753  69.7128903
  44.8858553  19.3342753  69.0088903  46.3558553  21.5112753  59.0108903
  46.8458553  22.2282753  58.9338903  45.5658553  21.7722753  58.7478903
  46.3118553  21.6552753  58.9608903  36.0668553  27.1842753  72.6628903
  36.0298553  27.6852753  71.9488903  36.3978553  26.4322753  72.3678903
  36.1098553  27.1462753  72.5138903  47.6698553  29.3892753  70.9208903
  48.1538553  30.1072753  71.0188903  48.0638553  28.9622753  70.2698903
  47.7998553  29.4322753  70.8388903  41.9658553  32.2342753  72.0978903
  42.3198553  32.0562753  72.8748903  41.5298553  31.5052753  71.8988903
  41.9538553  32.1002753  72.1838903  45.1268553  26.1502753  57.0098903
  45.1188553  26.8722753  56.5198903  44.4878553  26.2852753  57.5868903
  45.0318553  26.2772753  57.0228903  50.0988553  30.0202753  60.9908903
  50.4548553  29.6702753  61.7058903  50.0908553  29.3592753  60.4208903
  50.1508553  29.8702753  61.0118903  39.7198553  18.4922753  56.6708903
  39.8168553  18.3852753  57.5318903  39.0118553  18.9982753  56.6058903
  39.6298553  18.5512753  56.7888903  42.3408553  34.2652753  57.0848903
  42.9628553  34.4282753  57.6748903  42.3768553  34.9562753  56.5528903
  42.4378553  34.3912753  57.0938903  49.4168553  27.9352753  69.0808903
  49.4718553  28.0602753  68.2188903  50.1698553  28.2552753  69.3828903
  49.5358553  28.0002753  68.9978903  45.6078553  33.2842753  73.3578903
  45.7718553  33.5672753  74.1668903  45.8708553  33.9452753  72.8528903
  45.6708553  33.4242753  73.4028903  50.4488553  18.2332753  72.0678903
  49.8118553  17.8332753  71.6258903  50.4748553  17.8022753  72.8258903
  50.3588553  18.1112753  72.1138903  45.1478553  27.7412753  68.6808903
  44.9928553  28.3512753  69.2848903  45.6818553  27.1832753  69.0868903
  45.2038553  27.7492753  68.8298903  33.8388553  18.4602753  58.8818903
  33.9678553  17.7522753  58.3898903  33.4718553  18.1422753  59.6068903
  33.8038553  18.3082753  58.9168903  43.5318553  26.1412753  59.3388903
  43.5908553  26.7912753  59.9178903  43.3428553  25.4452753  59.8298903
  43.5128553  26.1342753  59.4968903  48.7578553  30.4702753  65.2078903
  48.2788553  30.7682753  64.5418903  48.4018553  29.6942753  65.3858903
  48.6348553  30.3992753  65.1358903  38.0278553  20.6582753  55.8508903
  37.5168553  20.7112753  55.1448903  38.8118553  20.8982753  55.5548903
  38.0678553  20.7012753  55.7028903  52.4498553  34.6362753  57.1478903
  53.1438553  34.1692753  56.8998903  51.9108553  34.0382753  57.4848903
  52.4728553  34.4782753  57.1608903  49.6888553  27.4122753  66.3268903
  49.6818553  26.6362753  66.7248903  48.8478553  27.6462753  66.3198903
  49.5638553  27.3322753  66.3848903  39.1788553  25.8242753  54.9618903
  38.5688553  25.4192753  55.4358903  38.7928553  25.9422753  54.1888903
  39.0318553  25.7812753  54.9178903  35.9978553  28.9332753  70.3638903
  35.5768553  28.4152753  69.8028903  35.6458553  29.7192753  70.2208903
  35.8838553  28.9732753  70.2598903  50.9448553  27.4832753  63.7638903
  50.6588553  27.8842753  64.4838903  51.8048553  27.4212753  63.8908903
  51.0298553  27.5332753  63.8888903  40.6338553  24.2852753  57.6718903
  40.9058553  25.1112753  57.7388903  39.7708553  24.3602753  57.5758903
  40.5468553  24.4182753  57.6668903  48.6068553  21.4072753  72.3038903
  48.0818553  21.8662753  72.8278903  48.2458553  20.6122753  72.2978903
  48.4758553  21.3572753  72.3798903  34.1138553  20.2552753  64.2078903
  34.1578553  20.5992753  63.4068903  34.8688553  20.4922753  64.5748903
  34.2318553  20.3412753  64.1438903  52.0758553  33.1162753  64.2928903
  52.3658553  33.3732753  63.5118903  52.7708553  33.2122753  64.8118903
  52.2218553  33.1682753  64.2538903  47.0988553  24.9762753  72.3798903
  47.1718553  25.0802753  73.2428903  46.4648553  25.5342753  72.1588903
  47.0158553  25.0742753  72.4748903  49.3668553  25.2952753  70.7448903
  49.6858553  26.0812753  70.9478903  48.9968553  25.0252753  71.4878903
  49.3598553  25.3712753  70.8848903  48.6808553  31.7192753  56.2748903
  49.0148553  30.9132753  56.3098903  47.9258553  31.6472753  56.7048903
  48.6188553  31.5892753  56.3438903  49.1628553  23.5532753  61.9338903
  48.4178553  23.2302753  62.2518903  49.1648553  24.3792753  62.2138903
  49.0528553  23.6272753  62.0218903  52.0648553  25.8372753  73.4798903
  52.0128553  25.4962753  72.6788903  52.8018553  26.3042753  73.4578903
  52.1658553  25.8562753  73.3578903  51.6028553  29.5132753  69.6858903
  52.2308553  28.9642753  69.4298903  51.5418553  30.0782753  69.0238903
  51.6868553  29.5162753  69.5498903  46.0548553  29.5942753  55.6778903
  46.7388553  29.0802753  55.5088903  45.6378553  29.6402753  54.9128903
  46.0938553  29.5252753  55.5398903  38.7158553  29.6942753  70.3798903
  37.9098553  29.4042753  70.5468903  38.6268553  30.5622753  70.3858903
  38.5838553  29.7792753  70.4048903  48.0748553  19.8832753  69.3948903
  48.8188553  20.3352753  69.3318903  47.5088553  20.3532753  68.9258903
  48.1018553  20.0202753  69.3168903  49.3598553  17.8632753  67.0648903
  49.0798553  18.6882753  67.0208903  50.0758553  17.9162753  67.5608903
  49.4248553  17.9932753  67.1318903  41.7148553  18.5782753  69.0938903
  42.4198553  18.8982753  68.6918903  41.9558553  17.7712753  69.3208903
  41.8538553  18.5062753  69.0678903  45.0088553  29.4222753  72.0788903
  45.7658553  29.7082753  71.7528903  44.4618553  29.4742753  71.4008903
  45.0398553  29.4722753  71.9298903  48.9178553  31.9722753  70.5828903
  49.2638553  32.2422753  71.3368903  49.2118553  32.5542753  70.0028903
  49.0128553  32.0982753  70.6088903  50.7808553  24.1182753  55.9218903
  51.1588553  24.7952753  55.5218903  49.9388553  24.3422753  55.9528903
  50.7118553  24.2512753  55.8668903  42.2938553  27.5642753  55.0048903
  41.4888553  27.3872753  54.7198903  42.2608553  28.4152753  55.1968903
  42.1698553  27.6632753  54.9918903  46.2398553  22.7332753  70.7468903
  45.5918553  23.2032753  71.0948903  46.8048553  22.6442753  71.4058903
  46.2278553  22.7892753  70.8958903  45.9278553  24.2702753  67.0448903
  46.2298553  24.6902753  67.7478903  45.9638553  23.4302753  67.2768903
  45.9778553  24.2082753  67.1828903  43.3528553  34.4372753  70.9698903
  43.8308553  33.8372753  70.5538903  43.0018553  33.9942753  71.6348903
  43.3718553  34.2832753  71.0068903  48.4758553  23.7172753  59.2968903
  48.6828553  23.5162753  60.1208903  49.2318553  23.9852753  58.9548903
  48.6178553  23.7272753  59.3678903  41.7708553  18.6162753  65.2018903
  40.9448553  18.4672753  65.4388903  41.7308553  18.6512753  64.3308903
  41.6428553  18.5992753  65.1078903  49.4978553  19.8002753  60.7708903
  48.7838553  19.3292753  60.9418903  49.3358553  20.1412753  59.9848903
  49.3688553  19.7812753  60.6798903  49.9408553  27.7442753  59.1508903
  50.4168553  27.0152753  59.1028903  49.1198553  27.4582753  59.0748903
  49.8898553  27.5942753  59.1318903  43.4118553  29.6562753  69.9898903
  42.6168553  29.5922753  70.3408903  43.4828553  30.5032753  69.7948903
  43.3048553  29.7712753  70.0128903  34.3358553  19.0142753  71.2368903
  34.1958553  19.8092753  70.9058903  33.5498553  18.7712753  71.5258903
  34.1988553  19.0962753  71.2308903  37.3998553  21.7582753  58.4618903
  37.5258553  21.4292753  57.6638903  36.5878553  21.5092753  58.6608903
  37.2988553  21.6732753  58.3738903  52.0768553  24.9122753  70.9088903
  51.2218553  24.7902753  71.0348903  52.2298553  24.5172753  70.1458903
  51.9728553  24.8352753  70.8148903  46.5898553  25.5772753  69.4848903
  46.3348553  24.8582753  69.9068903  47.4108553  25.6932753  69.7548903
  46.6738553  25.4882753  69.5868903  36.0058553  35.3612753  70.7488903
  35.3518553  34.7922753  70.8468903  35.6308553  36.1342753  70.8998903
  35.8538553  35.3912753  70.7858903  44.5238553  26.7672753  72.6718903
  44.8468553  27.4532753  72.2398903  43.8198553  27.0902753  73.0738903
  44.4668553  26.9162753  72.6668903  47.6078553  35.1412753  63.6008903
  47.1568553  35.7842753  63.9798903  48.3158553  35.0622753  64.1058903
  47.6458553  35.2242753  63.7318903  49.6858553  32.8242753  73.1108903
  50.4618553  32.4342753  73.1938903  49.2168553  32.4882753  73.7658903
  49.7308553  32.7172753  73.2198903  35.1518553  22.2172753  68.1528903
  35.2288553  22.0482753  67.2998903  35.8978553  22.6232753  68.3498903
  35.2728553  22.2522753  68.0558903  50.7108553  24.8572753  58.5928903
  50.8138553  24.7992753  57.7288903  51.4518553  24.5252753  58.9108903
  50.8358553  24.8002753  58.5118903  37.7058553  19.6272753  70.5638903
  37.6248553  18.7832753  70.7698903  37.3918553  19.6712753  69.7508903
  37.6478553  19.5092753  70.4738903  44.6308553  31.8222753  59.6998903
  44.4258553  32.6552753  59.5408903  43.8558553  31.4402753  59.8218903
  44.4858553  31.8892753  59.6948903  34.5488553  27.4432753  68.3768903
  34.8688553  27.6622753  67.5958903  34.4488553  26.5782753  68.3218903
  34.5808553  27.3482753  68.2538903  36.0048553  23.3792753  54.9948903
  35.3328553  23.3932753  55.5508903  36.0998553  22.5312753  54.8108903
  35.9198553  23.2562753  55.0498903  45.6918553  19.8032753  71.7308903
  45.7838553  20.5152753  72.2248903  45.0548553  19.3582753  72.1278903
  45.6108553  19.8422753  71.8628903  44.6858553  19.9932753  62.5848903
  43.9858553  20.5112753  62.5288903  44.7238553  19.6132753  61.8008903
  44.5878553  20.0142753  62.4608903  48.2838553  20.5092753  65.3848903
  49.1388553  20.6082753  65.5298903  47.9148553  21.0622753  65.9498903
  48.3558553  20.6062753  65.4898903  48.5878553  25.7892753  63.8758903
  49.2538553  26.3302753  64.0358903  48.2428553  26.1002753  63.1368903
  48.6348553  25.9152753  63.7908903  48.9008553  33.8552753  59.6828903
  48.7268553  33.2012753  60.2328903  49.6138553  33.5842753  59.2598903
  48.9808553  33.7182753  59.7018903  40.1408553  29.3992753  55.4528903
  39.3228553  29.1312753  55.5928903  40.1128553  30.2512753  55.6378903
  40.0158553  29.4862753  55.5008903  39.7408553  19.7122753  67.2118903
  38.8768553  19.7962753  67.2918903  39.9608553  19.1982753  67.8808903
  39.6458553  19.6492753  67.3228903  51.7588553  18.3472753  68.5408903
  51.7068553  18.3032753  69.4108903  52.4458553  17.8442753  68.3508903
  51.8528553  18.2672753  68.6408903  43.8438553  20.4602753  65.5858903
  43.1068553  20.0062753  65.6988903  44.4148553  20.0582753  66.1088903
  43.8188553  20.3332753  65.6798903  46.5758553  31.3082753  67.3738903
  46.7818553  31.6092753  68.1658903  46.5148553  32.0302753  66.8888903
  46.5968553  31.4592753  67.4188903  46.1098553  35.5222753  71.6198903
  45.3568553  35.5042753  71.1788903  46.2778553  36.3742753  71.7038903
  46.0238553  35.6452753  71.5668903  41.3468553  24.7892753  70.7898903
  41.0248553  24.2132753  70.2198903  40.9878553  25.5442753  70.5438903
  41.2468553  24.8152753  70.6698903  42.1428553  18.0412753  55.4168903
  42.2208553  18.2882753  54.5838903  41.3998553  18.4182753  55.6748903
  42.0448553  18.1332753  55.3318903  51.3878553  29.9472753  66.8318903
  51.3558553  29.0852753  66.6968903  50.6948553  30.2492753  66.3978903
  51.2808553  29.8642753  66.7478903  39.7818553  35.1452753  71.0378903
  39.8228553  35.2712753  71.9008903  40.4328553  34.5852753  70.8818903
  39.8838553  35.0812753  71.1428903  49.4928553  33.2072753  65.6288903
  50.0198553  33.1242753  64.9378903  49.1018553  32.4292753  65.6828903
  49.5128553  33.0802753  65.5348903  36.9608553  19.7952753  67.8598903
  36.6178553  19.0282753  67.6258903  36.2658553  20.3192753  67.9238903
  36.8078553  19.7592753  67.8348903  46.0068553  18.6512753  64.8368903
  46.6768553  19.1952753  64.9638903  45.5038553  19.0752753  64.2638903
  46.0318553  18.7942753  64.7708903  37.3748553  33.5282753  72.3978903
  37.9698553  33.9592753  72.8698903  37.0108553  34.1522753  71.9088903
  37.4088553  33.6842753  72.3948903  45.3658553  24.4592753  62.3298903
  45.9168553  23.8522753  62.6298903  44.9408553  24.7222753  63.0448903
  45.3848553  24.4082753  62.4788903  35.3018553  31.5172753  69.3268903
  34.7278553  31.9332753  69.8358903  36.0348553  31.9822753  69.4218903
  35.3258553  31.6472753  69.4158903  47.3358553  26.2902753  58.8918903
  47.4038553  25.4402753  59.0728903  46.5128553  26.3762753  58.6138903
  47.2238553  26.1772753  58.8778903  41.2548553  27.1812753  57.8298903
  41.3548553  27.3202753  56.9748903  42.0728553  27.1212753  58.1258903
  41.3898553  27.1922753  57.7468903  50.4148553  35.2452753  55.3098903
  51.0518553  35.1112753  55.8908903  50.0738553  34.4512753  55.1928903
  50.4588553  35.1082753  55.3778903  50.6098553  27.6632753  72.0428903
  51.2438553  27.4932753  72.6168903  51.0268553  28.0662753  71.3908903
  50.7648553  27.6982753  72.0318903  46.4898553  31.5102753  57.6318903
  46.2388553  31.3822753  58.4578903  46.1728553  30.8152753  57.2108903
  46.4058553  31.3892753  57.6918903  51.2348553  22.2272753  72.7808903
  51.0388553  22.8712753  73.3358903  50.5128553  21.7372753  72.7728903
  51.0998553  22.2502753  72.8618903  51.1338553  23.1682753  65.7518903
  50.3008553  23.4182753  65.6798903  51.0778553  22.3282753  65.9808903
  51.0028553  23.0812753  65.7748903  40.3938553  20.1562753  70.9458903
  40.6278553  19.5802753  70.3328903  39.5518553  19.9752753  71.0868903
  40.3038553  20.0442753  70.8758903  48.0208553  27.7742753  73.3978903
  48.8918553  27.7382753  73.3618903  47.8018553  28.1942753  72.6658903
  48.1178553  27.8302753  73.2848903  43.3758553  29.7182753  57.0618903
  44.0928553  29.3712753  56.7058903  43.3418553  30.5182753  56.7138903
  43.4768553  29.7852753  56.9578903  35.3468553  35.8432753  68.1598903
  35.8398553  35.7872753  68.8778903  35.5348553  35.1102753  67.7248903
  35.4478553  35.7262753  68.2018903  44.7848553  18.3592753  41.3006493
  44.5398553  18.8472753  40.6206493  45.6478553  18.2862753  41.2006493
  44.8758553  18.4202753  41.1856493  44.5938553  25.2752753  45.9716493
  44.0698553  25.8712753  46.3346493  44.9908553  24.9072753  46.6556493
  44.5748553  25.3092753  46.1266493  34.4628553  29.4152753  41.4276493
  34.0218553  29.5332753  42.1706493  34.1798553  28.6402753  41.1426493
  34.3558553  29.3182753  41.4956493  50.7378553  32.7162753  38.9426493
  51.4388553  32.1972753  38.9386493  50.1508553  32.2712753  38.4736493
  50.7548553  32.5732753  38.8726493  34.2058553  23.2072753  37.9346493
  33.4278553  23.3692753  37.5746493  34.2448553  22.3362753  37.9566493
  34.0968553  23.1022753  37.8846493  37.3448553  28.4702753  36.6066493
  36.9528553  28.0992753  35.9206493  37.2648553  27.8722753  37.2356493
  37.2748553  28.3272753  36.5976493  47.2648553  26.3422753  42.6476493
  47.3448553  26.3462753  41.7786493  46.6808553  25.7102753  42.7966493
  47.1898553  26.2492753  42.5416493  36.9718553  30.1112753  40.5066493
  37.5798553  29.9412753  41.1096493  36.2208553  29.9712753  40.9276493
  36.9508553  30.0652753  40.6576493  41.2538553  19.4462753  40.4556493
  41.1838553  20.1232753  39.9096493  41.9948553  19.0582753  40.2066493
  41.3528553  19.4892753  40.3376493  35.8488553  26.6712753  41.8846493
  35.3868553  26.2792753  41.2576493  36.5488553  26.1582753  41.9766493
  35.8838553  26.5382753  41.8056493  40.3568553  22.2812753  47.2316493
  41.0348553  22.2992753  46.6826493  40.3118553  21.4452753  47.4766493
  40.4498553  22.1602753  47.1866493  37.8498553  24.7712753  41.9076493
  38.6668553  24.5842753  42.1506493  37.3728553  24.1572753  42.3036493
  37.8998553  24.6532753  42.0026493  42.0538553  30.7522753  44.5176493
  42.4018553  29.9532753  44.5476493  42.7188553  31.2562753  44.2626493
  42.2038553  30.7082753  44.4846493  42.1108553  30.2012753  40.7286493
  42.4418553  29.5572753  41.2146493  42.3508553  29.9902753  39.9176493
  42.1948553  30.0752753  40.6806493  44.0788553  24.3322753  52.0676493
  43.2308553  24.2332753  51.8896493  44.1078553  25.0772753  52.5216493
  43.9578553  24.4282753  52.1086493  38.4468553  19.8652753  41.1736493
  38.1508553  20.3662753  40.5236493  39.3138553  19.9432753  41.1166493
  38.5308553  19.9512753  41.0696493  48.6368553  17.2922753  51.1816493
  48.4788553  18.0612753  50.7996493  47.8648553  17.0722753  51.5256493
  48.4988553  17.3732753  51.1766493  41.4258553  19.0072753  43.3966493
  41.4988553  19.8672753  43.5256493  41.3878553  18.9322753  42.5286493
  41.4308553  19.1232753  43.2876493  46.0988553  21.9332753  35.6956493
  45.6488553  22.6142753  36.0026493  46.2128553  21.4292753  36.3986493
  46.0498553  21.9592753  35.8446493  34.3048553  24.4322753  44.8976493
  34.0488553  25.2632753  44.8226493  33.6408553  24.0492753  45.3146493
  34.1688553  24.4982753  44.9486493  34.2148553  34.1422753  42.7976493
  33.6228553  34.7002753  42.4846493  34.6408553  33.8732753  42.0856493
  34.1908553  34.1842753  42.6466493  40.0548553  31.9862753  40.2776493
  39.4758553  31.7112753  40.8696493  40.6788553  31.3772753  40.3026493
  40.0618553  31.8562753  40.3686493  46.1978553  34.2742753  37.7996493
  46.9248553  34.7462753  37.9016493  46.4268553  33.4802753  38.0796493
  46.3398553  34.2272753  37.8566493  44.3658553  34.6662753  39.7896493
  44.5798553  35.1932753  40.4516493  45.1328553  34.4922753  39.4106493
  44.5108553  34.7182753  39.8316493  37.3338553  19.2492753  45.3886493
  36.8128553  18.6212753  45.0806493  37.9248553  18.8122753  45.8596493
  37.3448553  19.0912753  45.4126493  40.6398553  21.3822753  54.6866493
  40.7568553  20.9282753  53.9506493  40.9278553  22.1802753  54.4836493
  40.6998553  21.4332753  54.5476493  51.4928553  21.9062753  41.9906493
  51.1468553  22.5842753  42.4166493  50.8568553  21.3082753  42.0066493
  51.3478553  21.9182753  42.0556493  46.8048553  34.6762753  48.0946493
  47.5488553  35.1322753  48.0846493  46.6838553  34.4622753  47.2576493
  46.8968553  34.7122753  47.9696493  36.3728553  20.9792753  53.6706493
  35.5948553  20.5892753  53.5986493  36.8638553  20.5672753  53.0796493
  36.3298553  20.8602753  53.5726493  36.5778553  31.2992753  44.2286493
  37.0008553  30.9432753  43.5546493  36.9018553  30.8772753  44.9206493
  36.6878553  31.1842753  44.2316493  39.8088553  34.1512753  43.5246493
  40.6528553  34.2552753  43.3296493  39.5118553  34.9692753  43.5926493
  39.8898553  34.2872753  43.5056493  43.0218553  18.6222753  52.8386493
  43.1998553  17.8132753  52.5636493  42.8788553  19.0632753  52.0996493
  43.0268553  18.5682753  52.6886493  43.6158553  23.5482753  41.6116493
  43.9028553  23.3162753  40.8216493  44.3478553  23.6272753  42.0806493
  43.7658553  23.5252753  41.5646493  44.3378553  23.8872753  36.7326493
  44.6188553  24.6752753  36.9816493  43.5618553  24.0522753  36.3696493
  44.2648553  24.0282753  36.7156493  48.3788553  35.8612753  38.1996493
  49.0438553  35.7132753  37.6546493  48.7388553  35.7782753  38.9896493
  48.5308553  35.8272753  38.2356493  51.1678553  20.2292753  47.3596493
  51.9248553  20.3012753  46.9316493  51.2308553  19.4562753  47.7586493
  51.2888553  20.1262753  47.3546493  33.7208553  21.5272753  51.2566493
  33.7168553  22.1142753  51.9026493  34.3148553  21.8392753  50.6996493
  33.8078553  21.6602753  51.2696493  46.0588553  31.8612753  51.7986493
  46.0248553  32.2432753  52.5826493  46.9128553  31.8192753  51.6276493
  46.1798553  31.9112753  51.8896493  43.1968553  32.0582753  36.5486493
  43.0158553  32.6032753  37.2056493  43.9628553  32.3482753  36.2476493
  43.2828553  32.1822753  36.6016493  46.7038553  19.9542753  37.6026493
  47.2438553  19.2722753  37.6786493  46.7658553  20.3522753  38.3766493
  46.7928553  19.9122753  37.7286493  34.6578553  21.1222753  40.1716493
  34.5438553  20.2582753  40.2026493  34.1828553  21.4162753  40.8416493
  34.5708553  21.0382753  40.2746493  43.9618553  22.3302753  38.9166493
  43.4538553  21.6682753  38.6626493  44.0138553  22.8342753  38.2066493
  43.8948553  22.3072753  38.7746493  44.5108553  35.0252753  49.2966493
  45.2788553  34.9452753  48.8906493  43.9278553  34.9042753  48.6586493
  44.5378553  34.9952753  49.1426493  43.9618553  19.2712753  38.8076493
  43.5068553  18.8692753  38.1816493  44.7348553  19.4262753  38.4326493
  44.0088553  19.2352753  38.6596493  50.7878553  35.6282753  42.1976493
  50.3328553  36.3452753  42.3986493  50.1738553  35.0572753  41.9556493
  50.6298553  35.6502753  42.1916493  42.5598553  21.6382753  43.3296493
  42.6338553  22.2062753  42.6716493  42.6808553  22.1302753  44.0396493
  42.5878553  21.7952753  43.3376493  47.7848553  31.4732753  41.7416493
  48.4858553  30.9912753  41.9306493  47.1248553  30.9042753  41.7866493
  47.7908553  31.3182753  41.7756493  37.1678553  17.4612753  41.6776493
  37.7038553  18.1492753  41.6676493  37.1708553  17.1872753  40.8496493
  37.2468553  17.5222753  41.5536493  40.1238553  27.8942753  45.7026493
  40.2958553  27.6842753  46.5316493  39.4688553  27.3602753  45.4866493
  40.0528553  27.7842753  45.7936493  46.3518553  21.8082753  49.2176493
  46.2568553  22.1272753  50.0236493  45.7588553  21.1692753  49.1796493
  46.2498553  21.7602753  49.3316493  40.8738553  27.8322753  48.2926493
  40.9268553  28.6792753  48.4946493  40.5888553  27.4622753  49.0296493
  40.8398553  27.9022753  48.4306493  47.0508553  28.5272753  47.4226493
  46.5368553  28.1152753  47.9936493  46.9248553  29.3712753  47.6036493
  46.9568553  28.5912753  47.5336493  47.6078553  17.7522753  42.0536493
  47.6568553  17.4342753  42.8646493  47.9308553  17.1082753  41.5606493
  47.6628553  17.6102753  42.1006493  50.0718553  21.9882753  50.3616493
  50.8438553  21.7632753  50.6986493  49.5968553  22.2052753  51.0616493
  50.1158553  21.9872753  50.5146493  37.6158553  21.2712753  43.3316493
  37.8878553  20.8412753  42.6236493  37.4398553  20.6352753  43.9026493
  37.6298553  21.1142753  43.3116493  50.3038553  28.9662753  37.5496493
  50.4228553  28.6792753  38.3646493  51.1108553  28.9872753  37.2196493
  50.4398553  28.9272753  37.6216493  37.4398553  28.6982753  42.8806493
  38.2908553  28.6182753  42.7076493  37.0828553  28.0162753  42.4686493
  37.5128553  28.5852753  42.7936493  36.2068553  35.4232753  44.1176493
  35.5338553  34.9252753  43.8726493  36.6098553  35.6082753  43.3666493
  36.1668553  35.3772753  43.9706493  35.7568553  22.3732753  46.4136493
  36.5998553  22.5932753  46.3706493  35.3678553  22.9462753  45.8826493
  35.8238553  22.4902753  46.3286493  52.5378553  33.4752753  51.8036493
  51.8558553  33.7852753  51.3566493  52.1688553  33.0172753  52.4486493
  52.3818553  33.4532753  51.8326493  48.1988553  25.5032753  37.1346493
  47.9788553  26.2342753  36.7126493  47.7508553  25.5542753  37.8816493
  48.0998553  25.6182753  37.1826493  39.8078553  28.7052753  41.1156493
  40.5208553  29.2002753  41.2056493  40.0298553  28.1382753  40.4896493
  39.9458553  28.6942753  41.0366493  52.3858553  20.3642753  36.5876493
  51.7238553  19.7962753  36.6106493  52.1928553  20.8762753  35.9076493
  52.2598553  20.3562753  36.4906493  33.9638553  30.3482753  44.4356493
  33.2968553  30.8362753  44.7116493  34.6438553  30.8932753  44.4646493
  33.9658553  30.5002753  44.4806493  41.6108553  24.0582753  54.5316493
  41.1268553  24.6352753  54.9736493  41.5828553  24.3532753  53.7106493
  41.5348553  24.1872753  54.4756493  52.7088553  24.7422753  49.1436493
  52.9238553  23.9422753  48.8676493  51.8588553  24.8022753  48.9546493
  52.6148553  24.6332753  49.0746493  50.3878553  19.9222753  38.8666493
  51.1338553  19.5152753  39.0656493  50.6508553  20.6372753  38.4416493
  50.5368553  19.9682753  38.8336493  44.3308553  32.4082753  43.4426493
  43.8078553  33.0422753  43.1496493  44.6408553  32.0442753  42.7136493
  44.2988553  32.4482753  43.2916493  38.4058553  30.1962753  46.2026493
  38.8728553  30.4852753  46.8806493  38.9778553  29.7182753  45.7486493
  38.5598553  30.1682753  46.2356493  46.8418553  22.2102753  43.9396493
  47.1858553  22.3622753  44.7266493  46.3888553  21.4722753  44.0526493
  46.8258553  22.1232753  44.0726493  34.9718553  27.8662753  44.7466493
  35.4028553  27.7372753  43.9996493  34.7668553  28.7142753  44.7206493
  35.0048553  27.9722753  44.6326493  41.3178553  21.4302753  38.3966493
  41.3158553  21.3132753  37.5316493  41.1368553  22.2782753  38.4886493
  41.2908553  21.5382753  38.2826493  50.3718553  33.8572753  49.8936493
  49.7008553  34.3712753  50.1116493  50.4348553  33.9572753  49.0296493
  50.2818553  33.9482753  49.7986493  39.0558553  31.3822753  43.0286493
  39.1818553  32.2252753  43.2156493  39.7238553  30.9832753  43.4246493
  39.1738553  31.4482753  43.1146493  37.1858553  24.8652753  52.8906493
  36.6498553  24.3592753  53.3586493  37.2058553  24.4752753  52.1106493
  37.1088553  24.7322753  52.8446493  37.6708553  24.2622753  38.0306493
  37.5428553  23.8142753  38.7686493  37.0888553  23.9202753  37.4786493
  37.5658553  24.1452753  38.0586493  37.8378553  26.0922753  44.6296493
  37.0568553  26.0332753  44.2466493  37.9098553  25.3402753  45.0666493
  37.7328553  25.9732753  44.6376493  38.2678553  25.8292753  48.0976493
  38.2928553  25.1542753  47.5466493  37.6218553  26.3252753  47.7856493
  38.1768553  25.8022753  47.9706493  48.1628553  23.5422753  46.4936493
  47.5008553  23.8702753  46.9566493  48.3498553  24.1762753  45.9246493
  48.0928553  23.6842753  46.4776493  42.3678553  34.6062753  47.4896493
  42.0908553  33.9652753  46.9666493  42.1598553  35.3322753  47.0516493
  42.2968553  34.6192753  47.3476493  44.8078553  19.4482753  49.9226493
  44.9568553  18.6232753  49.6796493  45.1868553  19.5032753  50.7066493
  44.8858553  19.3342753  50.0026493  46.3558553  21.5112753  40.0046493
  46.8458553  22.2282753  39.9276493  45.5658553  21.7722753  39.7416493
  46.3118553  21.6552753  39.9546493  47.6698553  29.3892753  51.9146493
  48.1538553  30.1072753  52.0126493  48.0638553  28.9622753  51.2636493
  47.7998553  29.4322753  51.8326493  41.9658553  32.2342753  53.0916493
  42.3198553  32.0562753  53.8686493  41.5298553  31.5052753  52.8926493
  41.9538553  32.1002753  53.1776493  42.9378553  22.9812753  45.7296493
  43.4178553  23.6802753  45.9376493  43.3108553  22.3342753  46.1806493
  43.0638553  22.9892753  45.8266493  45.1268553  26.1502753  38.0036493
  45.1188553  26.8722753  37.5136493  44.4878553  26.2852753  38.5806493
  45.0318553  26.2772753  38.0166493  50.0988553  30.0202753  41.9846493
  50.4548553  29.6702753  42.6996493  50.0908553  29.3592753  41.4146493
  50.1508553  29.8702753  42.0056493  46.1438553  33.0862753  45.8286493
  45.5408553  32.7902753  45.2716493  46.6888553  33.5382753  45.3196493
  46.1348553  33.1092753  45.6706493  46.1568553  29.9372753  45.2286493
  45.3598553  30.1612753  45.5026493  46.4148553  29.3432753  45.8136493
  46.0768553  29.8822753  45.3556493  40.0488553  34.7492753  39.6766493
  39.9018553  33.9732753  40.0476493  40.7378553  34.6022753  39.1616493
  40.1288553  34.6122753  39.6556493  39.7198553  18.4922753  37.6646493
  39.8168553  18.3852753  38.5256493  39.0118553  18.9982753  37.5996493
  39.6298553  18.5512753  37.7826493  42.3408553  34.2652753  38.0786493
  42.9628553  34.4282753  38.6686493  42.3768553  34.9562753  37.5466493
  42.4378553  34.3912753  38.0876493  49.4168553  27.9352753  50.0746493
  49.4718553  28.0602753  49.2126493  50.1698553  28.2552753  50.3766493
  49.5358553  28.0002753  49.9916493  45.6078553  33.2842753  54.3516493
  45.7718553  33.5672753  55.1606493  45.8708553  33.9452753  53.8466493
  45.6708553  33.4242753  54.3966493  50.4488553  18.2332753  53.0616493
  49.8118553  17.8332753  52.6196493  50.4748553  17.8022753  53.8196493
  50.3588553  18.1112753  53.1076493  36.8418553  26.7992753  38.9076493
  37.1658553  26.0202753  38.6856493  37.4878553  27.1672753  39.3626493
  36.9848553  26.7382753  38.9416493  45.1478553  27.7412753  49.6746493
  44.9928553  28.3512753  50.2786493  45.6818553  27.1832753  50.0806493
  45.2038553  27.7492753  49.8236493  33.8388553  18.4602753  39.8756493
  33.9678553  17.7522753  39.3836493  33.4718553  18.1422753  40.6006493
  33.8038553  18.3082753  39.9106493  43.5318553  26.1412753  40.3326493
  43.5908553  26.7912753  40.9116493  43.3428553  25.4452753  40.8236493
  43.5128553  26.1342753  40.4906493  48.7578553  30.4702753  46.2016493
  48.2788553  30.7682753  45.5356493  48.4018553  29.6942753  46.3796493
  48.6348553  30.3992753  46.1296493  38.0278553  20.6582753  36.8446493
  37.5168553  20.7112753  36.1386493  38.8118553  20.8982753  36.5486493
  38.0678553  20.7012753  36.6966493  42.7548553  28.1882753  44.7636493
  41.9078553  27.9942753  44.8446493  43.0788553  28.0232753  45.5566493
  42.6768553  28.1352753  44.8926493  39.5068553  34.9182753  35.6496493
  39.9458553  34.2212753  35.9376493  39.7138553  35.5422753  36.2226493
  39.6028553  34.9072753  35.7766493  36.6028553  27.8812753  47.0796493
  37.3248553  28.3692753  47.0426493  36.3328553  27.8512753  46.2506493
  36.6698553  27.9492753  46.9516493  39.8328553  23.0522753  43.8146493
  40.6788553  22.8622753  43.9126493  39.4628553  22.2752753  43.6766493
  39.9028553  22.9092753  43.8086493  52.4498553  34.6362753  38.1416493
  53.1438553  34.1692753  37.8936493  51.9108553  34.0382753  38.4786493
  52.4728553  34.4782753  38.1546493  34.6538553  24.3902753  40.4696493
  35.1428553  24.0982753  41.1306493  34.7828553  23.7972753  39.8426493
  34.7448553  24.2592753  40.4746493  49.6888553  27.4122753  47.3206493
  49.6818553  26.6362753  47.7186493  48.8478553  27.6462753  47.3136493
  49.5638553  27.3322753  47.3786493  39.1788553  25.8242753  35.9556493
  38.5688553  25.4192753  36.4296493  38.7928553  25.9422753  35.1826493
  39.0318553  25.7812753  35.9116493  50.9448553  27.4832753  44.7576493
  50.6588553  27.8842753  45.4776493  51.8048553  27.4212753  44.8846493
  51.0298553  27.5332753  44.8826493  40.6338553  24.2852753  38.6656493
  40.9058553  25.1112753  38.7326493  39.7708553  24.3602753  38.5696493
  40.5468553  24.4182753  38.6606493  48.6068553  21.4072753  53.2976493
  48.0818553  21.8662753  53.8216493  48.2458553  20.6122753  53.2916493
  48.4758553  21.3572753  53.3736493  34.1138553  20.2552753  45.2016493
  34.1578553  20.5992753  44.4006493  34.8688553  20.4922753  45.5686493
  34.2318553  20.3412753  45.1376493  52.0758553  33.1162753  45.2866493
  52.3658553  33.3732753  44.5056493  52.7708553  33.2122753  45.8056493
  52.2218553  33.1682753  45.2476493  47.0988553  24.9762753  53.3736493
  47.1718553  25.0802753  54.2366493  46.4648553  25.5342753  53.1526493
  47.0158553  25.0742753  53.4686493  49.3668553  25.2952753  51.7386493
  49.6858553  26.0812753  51.9416493  48.9968553  25.0252753  52.4816493
  49.3598553  25.3712753  51.8786493  48.6808553  31.7192753  37.2686493
  49.0148553  30.9132753  37.3036493  47.9258553  31.6472753  37.6986493
  48.6188553  31.5892753  37.3376493  49.1628553  23.5532753  42.9276493
  48.4178553  23.2302753  43.2456493  49.1648553  24.3792753  43.2076493
  49.0528553  23.6272753  43.0156493  52.0648553  25.8372753  54.4736493
  52.0128553  25.4962753  53.6726493  52.8018553  26.3042753  54.4516493
  52.1658553  25.8562753  54.3516493  51.6028553  29.5132753  50.6796493
  52.2308553  28.9642753  50.4236493  51.5418553  30.0782753  50.0176493
  51.6868553  29.5162753  50.5436493  46.0548553  29.5942753  36.6716493
  46.7388553  29.0802753  36.5026493  45.6378553  29.6402753  35.9066493
  46.0938553  29.5252753  36.5336493  48.0748553  19.8832753  50.3886493
  48.8188553  20.3352753  50.3256493  47.5088553  20.3532753  49.9196493
  48.1018553  20.0202753  50.3106493  43.2528553  27.1672753  47.4666493
  43.7288553  27.5412753  48.0946493  42.4298553  27.3012753  47.7256493
  43.2018553  27.2422753  47.5976493  39.9628553  22.7702753  50.2076493
  40.1238553  22.0262753  50.6346493  39.9178553  22.5212753  49.3726493
  39.9798553  22.6232753  50.1476493  42.5168553  34.5602753  42.6946493
  43.0628553  35.2392753  42.7486493  42.1668553  34.6422753  41.8996493
  42.5458553  34.6732753  42.5846493  49.3598553  17.8632753  48.0586493
  49.0798553  18.6882753  48.0146493  50.0758553  17.9162753  48.5546493
  49.4248553  17.9932753  48.1256493  41.7148553  18.5782753  50.0876493
  42.4198553  18.8982753  49.6856493  41.9558553  17.7712753  50.3146493
  41.8538553  18.5062753  50.0616493  40.6998553  32.7882753  46.0836493
  40.0758553  33.3702753  45.9016493  40.9478553  32.5022753  45.2976493
  40.6438553  32.8322753  45.9406493  45.0088553  29.4222753  53.0726493
  45.7658553  29.7082753  52.7466493  44.4618553  29.4742753  52.3946493
  45.0398553  29.4722753  52.9236493  48.9178553  31.9722753  51.5766493
  49.2638553  32.2422753  52.3306493  49.2118553  32.5542753  50.9966493
  49.0128553  32.0982753  51.6026493  50.7808553  24.1182753  36.9156493
  51.1588553  24.7952753  36.5156493  49.9388553  24.3422753  36.9466493
  50.7118553  24.2512753  36.8606493  42.2938553  27.5642753  35.9986493
  41.4888553  27.3872753  35.7136493  42.2608553  28.4152753  36.1906493
  42.1698553  27.6632753  35.9856493  38.2238553  23.6312753  46.1486493
  38.6638553  23.5282753  45.4026493  38.7688553  23.3182753  46.7536493
  38.3688553  23.5702753  46.1276493  46.2398553  22.7332753  51.7406493
  45.5918553  23.2032753  52.0886493  46.8048553  22.6442753  52.3996493
  46.2278553  22.7892753  51.8896493  45.9278553  24.2702753  48.0386493
  46.2298553  24.6902753  48.7416493  45.9638553  23.4302753  48.2706493
  45.9778553  24.2082753  48.1766493  43.3528553  34.4372753  51.9636493
  43.8308553  33.8372753  51.5476493  43.0018553  33.9942753  52.6286493
  43.3718553  34.2832753  52.0006493  48.4758553  23.7172753  40.2906493
  48.6828553  23.5162753  41.1146493  49.2318553  23.9852753  39.9486493
  48.6178553  23.7272753  40.3616493  41.7708553  18.6162753  46.1956493
  40.9448553  18.4672753  46.4326493  41.7308553  18.6512753  45.3246493
  41.6428553  18.5992753  46.1016493  49.4978553  19.8002753  41.7646493
  48.7838553  19.3292753  41.9356493  49.3358553  20.1412753  40.9786493
  49.3688553  19.7812753  41.6736493  49.9408553  27.7442753  40.1446493
  50.4168553  27.0152753  40.0966493  49.1198553  27.4582753  40.0686493
  49.8898553  27.5942753  40.1256493  43.4118553  29.6562753  50.9836493
  42.6168553  29.5922753  51.3346493  43.4828553  30.5032753  50.7886493
  43.3048553  29.7712753  51.0066493  34.3358553  19.0142753  52.2306493
  34.1958553  19.8092753  51.8996493  33.5498553  18.7712753  52.5196493
  34.1988553  19.0962753  52.2246493  39.2418553  35.8632753  46.3006493
  39.2528553  35.9222753  47.1706493  38.8168553  35.1162753  46.1506493
  39.1808553  35.7612753  46.4066493  37.3998553  21.7582753  39.4556493
  37.5258553  21.4292753  38.6576493  36.5878553  21.5092753  39.6546493
  37.2988553  21.6732753  39.3676493  46.1568553  28.9112753  42.4996493
  46.2328553  29.2522753  43.2986493  46.3258553  28.0642753  42.6206493
  46.1928553  28.8362753  42.6356493  43.6788553  28.1852753  42.0646493
  43.3808553  27.8702753  42.8216493  44.3738553  28.6582753  42.2996493
  43.7378553  28.2082753  42.2116493  43.9008553  32.3032753  50.0916493
  44.5878553  32.1892753  50.6166493  44.0348553  33.0942753  49.7476493
  44.0218553  32.4032753  50.1186493  52.0768553  24.9122753  51.9026493
  51.2218553  24.7902753  52.0286493  52.2298553  24.5172753  51.1396493
  51.9728553  24.8352753  51.8086493  46.5898553  25.5772753  50.4786493
  46.3348553  24.8582753  50.9006493  47.4108553  25.6932753  50.7486493
  46.6738553  25.4882753  50.5806493  44.5238553  26.7672753  53.6656493
  44.8468553  27.4532753  53.2336493  43.8198553  27.0902753  54.0676493
  44.4668553  26.9162753  53.6606493  47.6078553  35.1412753  44.5946493
  47.1568553  35.7842753  44.9736493  48.3158553  35.0622753  45.0996493
  47.6458553  35.2242753  44.7256493  44.3088553  30.2312753  47.5246493
  43.6148553  30.6332753  47.8676493  44.9858553  30.6642753  47.8636493
  44.3058553  30.3542753  47.6256493  49.6858553  32.8242753  54.1046493
  50.4618553  32.4342753  54.1876493  49.2168553  32.4882753  54.7596493
  49.7308553  32.7172753  54.2136493  37.3768553  23.7692753  49.8716493
  37.7518553  24.3882753  49.3846493  38.0508553  23.2952753  50.1566493
  37.5318553  23.7912753  49.8416493  35.1518553  22.2172753  49.1466493
  35.2288553  22.0482753  48.2936493  35.8978553  22.6232753  49.3436493
  35.2728553  22.2522753  49.0496493  50.7108553  24.8572753  39.5866493
  50.8138553  24.7992753  38.7226493  51.4518553  24.5252753  39.9046493
  50.8358553  24.8002753  39.5056493  37.7058553  19.6272753  51.5576493
  37.6248553  18.7832753  51.7636493  37.3918553  19.6712753  50.7446493
  37.6478553  19.5092753  51.4676493  44.6308553  31.8222753  40.6936493
  44.4258553  32.6552753  40.5346493  43.8558553  31.4402753  40.8156493
  44.4858553  31.8892753  40.6886493  49.8128553  25.0032753  48.9426493
  49.8108553  24.1402753  49.0666493  49.8798553  25.3272753  49.7496493
  49.8228553  24.9232753  49.0796493  34.5488553  27.4432753  49.3706493
  34.8688553  27.6622753  48.5896493  34.4488553  26.5782753  49.3156493
  34.5808553  27.3482753  49.2476493  36.0048553  23.3792753  35.9886493
  35.3328553  23.3932753  36.5446493  36.0998553  22.5312753  35.8046493
  35.9198553  23.2562753  36.0436493  45.6918553  19.8032753  52.7246493
  45.7838553  20.5152753  53.2186493  45.0548553  19.3582753  53.1216493
  45.6108553  19.8422753  52.8566493  44.6858553  19.9932753  43.5786493
  43.9858553  20.5112753  43.5226493  44.7238553  19.6132753  42.7946493
  44.5878553  20.0142753  43.4546493  39.9928553  32.0842753  37.1026493
  40.4338553  32.1642753  37.8506493  39.1878553  31.8682753  37.3606493
  39.9388553  32.0642753  37.2516493  48.2838553  20.5092753  46.3786493
  49.1388553  20.6082753  46.5236493  47.9148553  21.0622753  46.9436493
  48.3558553  20.6062753  46.4836493  48.5878553  25.7892753  44.8696493
  49.2538553  26.3302753  45.0296493  48.2428553  26.1002753  44.1306493
  48.6348553  25.9152753  44.7846493  48.9008553  33.8552753  40.6766493
  48.7268553  33.2012753  41.2266493  49.6138553  33.5842753  40.2536493
  48.9808553  33.7182753  40.6956493  37.3218553  31.1542753  37.7036493
  37.0778553  30.8472753  38.4836493  37.2888553  30.4512753  37.1876493
  37.2808553  31.0052753  37.7426493  40.1408553  29.3992753  36.4466493
  39.3228553  29.1312753  36.5866493  40.1128553  30.2512753  36.6316493
  40.0158553  29.4862753  36.4946493  39.7408553  19.7122753  48.2056493
  38.8768553  19.7962753  48.2856493  39.9608553  19.1982753  48.8746493
  39.6458553  19.6492753  48.3166493  51.7588553  18.3472753  49.5346493
  51.7068553  18.3032753  50.4046493  52.4458553  17.8442753  49.3446493
  51.8528553  18.2672753  49.6346493  43.8438553  20.4602753  46.5796493
  43.1068553  20.0062753  46.6926493  44.4148553  20.0582753  47.1026493
  43.8188553  20.3332753  46.6736493  46.5758553  31.3082753  48.3676493
  46.7818553  31.6092753  49.1596493  46.5148553  32.0302753  47.8826493
  46.5968553  31.4592753  48.4126493  46.1098553  35.5222753  52.6136493
  45.3568553  35.5042753  52.1726493  46.2778553  36.3742753  52.6976493
  46.0238553  35.6452753  52.5606493  41.3468553  24.7892753  51.7836493
  41.0248553  24.2132753  51.2136493  40.9878553  25.5442753  51.5376493
  41.2468553  24.8152753  51.6636493  42.1428553  18.0412753  36.4106493
  42.2208553  18.2882753  35.5776493  41.3998553  18.4182753  36.6686493
  42.0448553  18.1332753  36.3256493  51.3878553  29.9472753  47.8256493
  51.3558553  29.0852753  47.6906493  50.6948553  30.2492753  47.3916493
  51.2808553  29.8642753  47.7416493  49.4928553  33.2072753  46.6226493
  50.0198553  33.1242753  45.9316493  49.1018553  32.4292753  46.6766493
  49.5128553  33.0802753  46.5286493  36.9608553  19.7952753  48.8536493
  36.6178553  19.0282753  48.6196493  36.2658553  20.3192753  48.9176493
  36.8078553  19.7592753  48.8286493  46.0068553  18.6512753  45.8306493
  46.6768553  19.1952753  45.9576493  45.5038553  19.0752753  45.2576493
  46.0318553  18.7942753  45.7646493  45.3658553  24.4592753  43.3236493
  45.9168553  23.8522753  43.6236493  44.9408553  24.7222753  44.0386493
  45.3848553  24.4082753  43.4726493  35.6138553  23.1092753  42.8096493
  35.2458553  23.4112753  43.5406493  36.1478553  22.4802753  43.0936493
  35.6378553  23.0612753  42.9596493  47.3358553  26.2902753  39.8856493
  47.4038553  25.4402753  40.0666493  46.5128553  26.3762753  39.6076493
  47.2238553  26.1772753  39.8716493  37.0878553  34.7842753  39.0956493
  36.9428553  34.9402753  38.2496493  37.9538553  34.8632753  39.1736493
  37.1948553  34.8192753  38.9826493  41.2548553  27.1812753  38.8236493
  41.3548553  27.3202753  37.9686493  42.0728553  27.1212753  39.1196493
  41.3898553  27.1922753  38.7406493  50.4148553  35.2452753  36.3036493
  51.0518553  35.1112753  36.8846493  50.0738553  34.4512753  36.1866493
  50.4588553  35.1082753  36.3716493  50.6098553  27.6632753  53.0366493
  51.2438553  27.4932753  53.6106493  51.0268553  28.0662753  52.3846493
  50.7648553  27.6982753  53.0256493  46.4898553  31.5102753  38.6256493
  46.2388553  31.3822753  39.4516493  46.1728553  30.8152753  38.2046493
  46.4058553  31.3892753  38.6856493  51.2348553  22.2272753  53.7746493
  51.0388553  22.8712753  54.3296493  50.5128553  21.7372753  53.7666493
  51.0998553  22.2502753  53.8556493  51.1338553  23.1682753  46.7456493
  50.3008553  23.4182753  46.6736493  51.0778553  22.3282753  46.9746493
  51.0028553  23.0812753  46.7686493  40.3938553  20.1562753  51.9396493
  40.6278553  19.5802753  51.3266493  39.5518553  19.9752753  52.0806493
  40.3038553  20.0442753  51.8696493  48.0208553  27.7742753  54.3916493
  48.8918553  27.7382753  54.3556493  47.8018553  28.1942753  53.6596493
  48.1178553  27.8302753  54.2786493  37.7748553  33.5992753  45.5726493
  37.6958553  32.7892753  45.2566493  37.3308553  34.0862753  45.0006493
  37.6978553  33.5512753  45.4416493  43.3758553  29.7182753  38.0556493
  44.0928553  29.3712753  37.6996493  43.3418553  30.5182753  37.7076493
  43.4768553  29.7852753  37.9516493  44.7848553  18.3592753  22.2944083
  44.5398553  18.8472753  21.6144083  45.6478553  18.2862753  22.1944083
  44.8758553  18.4202753  22.1794083  44.5938553  25.2752753  26.9654083
  44.0698553  25.8712753  27.3284083  44.9908553  24.9072753  27.6494083
  44.5748553  25.3092753  27.1204083  34.4628553  29.4152753  22.4214083
  34.0218553  29.5332753  23.1644083  34.1798553  28.6402753  22.1364083
  34.3558553  29.3182753  22.4894083  50.7378553  32.7162753  19.9364083
  51.4388553  32.1972753  19.9324083  50.1508553  32.2712753  19.4674083
  50.7548553  32.5732753  19.8664083  34.2058553  23.2072753  18.9284083
  33.4278553  23.3692753  18.5684083  34.2448553  22.3362753  18.9504083
  34.0968553  23.1022753  18.8784083  37.3448553  28.4702753  17.6004083
  36.9528553  28.0992753  16.9144083  37.2648553  27.8722753  18.2294083
  37.2748553  28.3272753  17.5914083  47.2648553  26.3422753  23.6414083
  47.3448553  26.3462753  22.7724083  46.6808553  25.7102753  23.7904083
  47.1898553  26.2492753  23.5354083  36.9718553  30.1112753  21.5004083
  37.5798553  29.9412753  22.1034083  36.2208553  29.9712753  21.9214083
  36.9508553  30.0652753  21.6514083  41.2538553  19.4462753  21.4494083
  41.1838553  20.1232753  20.9034083  41.9948553  19.0582753  21.2004083
  41.3528553  19.4892753  21.3314083  35.8628553  33.2022753  17.5774083
  36.3298553  33.2862753  16.8454083  36.3178553  32.6242753  18.0464083
  35.9988553  33.1292753  17.5384083  35.8488553  26.6712753  22.8784083
  35.3868553  26.2792753  22.2514083  36.5488553  26.1582753  22.9704083
  35.8838553  26.5382753  22.7994083  40.3568553  22.2812753  28.2254083
  41.0348553  22.2992753  27.6764083  40.3118553  21.4452753  28.4704083
  40.4498553  22.1602753  28.1804083  37.8498553  24.7712753  22.9014083
  38.6668553  24.5842753  23.1444083  37.3728553  24.1572753  23.2974083
  37.8998553  24.6532753  22.9964083  42.0538553  30.7522753  25.5114083
  42.4018553  29.9532753  25.5414083  42.7188553  31.2562753  25.2564083
  42.2038553  30.7082753  25.4784083  42.1108553  30.2012753  21.7224083
  42.4418553  29.5572753  22.2084083  42.3508553  29.9902753  20.9114083
  42.1948553  30.0752753  21.6744083  44.0788553  24.3322753  33.0614083
  43.2308553  24.2332753  32.8834083  44.1078553  25.0772753  33.5154083
  43.9578553  24.4282753  33.1024083  38.4468553  19.8652753  22.1674083
  38.1508553  20.3662753  21.5174083  39.3138553  19.9432753  22.1104083
  38.5308553  19.9512753  22.0634083  48.6368553  17.2922753  32.1754083
  48.4788553  18.0612753  31.7934083  47.8648553  17.0722753  32.5194083
  48.4988553  17.3732753  32.1704083  46.0988553  21.9332753  16.6894083
  45.6488553  22.6142753  16.9964083  46.2128553  21.4292753  17.3924083
  46.0498553  21.9592753  16.8384083  34.3048553  24.4322753  25.8914083
  34.0488553  25.2632753  25.8164083  33.6408553  24.0492753  26.3084083
  34.1688553  24.4982753  25.9424083  34.2148553  34.1422753  23.7914083
  33.6228553  34.7002753  23.4784083  34.6408553  33.8732753  23.0794083
  34.1908553  34.1842753  23.6404083  40.0548553  31.9862753  21.2714083
  39.4758553  31.7112753  21.8634083  40.6788553  31.3772753  21.2964083
  40.0618553  31.8562753  21.3624083  46.1978553  34.2742753  18.7934083
  46.9248553  34.7462753  18.8954083  46.4268553  33.4802753  19.0734083
  46.3398553  34.2272753  18.8504083  44.3658553  34.6662753  20.7834083
  44.5798553  35.1932753  21.4454083  45.1328553  34.4922753  20.4044083
  44.5108553  34.7182753  20.8254083  37.3338553  19.2492753  26.3824083
  36.8128553  18.6212753  26.0744083  37.9248553  18.8122753  26.8534083
  37.3448553  19.0912753  26.4064083  40.6398553  21.3822753  35.6804083
  40.7568553  20.9282753  34.9444083  40.9278553  22.1802753  35.4774083
  40.6998553  21.4332753  35.5414083  35.7598553  32.8122753  21.7224083
  36.4158553  32.2372753  21.7374083  36.1488553  33.5612753  21.5014083
  35.9148553  32.8372753  21.6924083  51.4928553  21.9062753  22.9844083
  51.1468553  22.5842753  23.4104083  50.8568553  21.3082753  23.0004083
  51.3478553  21.9182753  23.0494083  46.8048553  34.6762753  29.0884083
  47.5488553  35.1322753  29.0784083  46.6838553  34.4622753  28.2514083
  46.8968553  34.7122753  28.9634083  36.3728553  20.9792753  34.6644083
  35.5948553  20.5892753  34.5924083  36.8638553  20.5672753  34.0734083
  36.3298553  20.8602753  34.5664083  36.5778553  31.2992753  25.2224083
  37.0008553  30.9432753  24.5484083  36.9018553  30.8772753  25.9144083
  36.6878553  31.1842753  25.2254083  39.8088553  34.1512753  24.5184083
  40.6528553  34.2552753  24.3234083  39.5118553  34.9692753  24.5864083
  39.8898553  34.2872753  24.4994083  43.6158553  23.5482753  22.6054083
  43.9028553  23.3162753  21.8154083  44.3478553  23.6272753  23.0744083
  43.7658553  23.5252753  22.5584083  44.3378553  23.8872753  17.7264083
  44.6188553  24.6752753  17.9754083  43.5618553  24.0522753  17.3634083
  44.2648553  24.0282753  17.7094083  48.3788553  35.8612753  19.1934083
  49.0438553  35.7132753  18.6484083  48.7388553  35.7782753  19.9834083
  48.5308553  35.8272753  19.2294083  38.8068553  35.3702753  30.2584083
  39.0988553  35.3032753  31.0784083  38.1808553  34.7652753  30.2134083
  38.7578553  35.2712753  30.3734083  51.1678553  20.2292753  28.3534083
  51.9248553  20.3012753  27.9254083  51.2308553  19.4562753  28.7524083
  51.2888553  20.1262753  28.3484083  46.0588553  31.8612753  32.7924083
  46.0248553  32.2432753  33.5764083  46.9128553  31.8192753  32.6214083
  46.1798553  31.9112753  32.8834083  43.1968553  32.0582753  17.5424083
  43.0158553  32.6032753  18.1994083  43.9628553  32.3482753  17.2414083
  43.2828553  32.1822753  17.5954083  46.7038553  19.9542753  18.5964083
  47.2438553  19.2722753  18.6724083  46.7658553  20.3522753  19.3704083
  46.7928553  19.9122753  18.7224083  34.6578553  21.1222753  21.1654083
  34.5438553  20.2582753  21.1964083  34.1828553  21.4162753  21.8354083
  34.5708553  21.0382753  21.2684083  36.7998553  33.5322753  29.3804083
  36.1018553  33.0242753  29.5064083  37.0598553  33.3272753  28.5724083
  36.7348553  33.4272753  29.2794083  43.9618553  22.3302753  19.9104083
  43.4538553  21.6682753  19.6564083  44.0138553  22.8342753  19.2004083
  43.8948553  22.3072753  19.7684083  44.5108553  35.0252753  30.2904083
  45.2788553  34.9452753  29.8844083  43.9278553  34.9042753  29.6524083
  44.5378553  34.9952753  30.1364083  43.9618553  19.2712753  19.8014083
  43.5068553  18.8692753  19.1754083  44.7348553  19.4262753  19.4264083
  44.0088553  19.2352753  19.6534083  50.7878553  35.6282753  23.1914083
  50.3328553  36.3452753  23.3924083  50.1738553  35.0572753  22.9494083
  50.6298553  35.6502753  23.1854083  42.5598553  21.6382753  24.3234083
  42.6338553  22.2062753  23.6654083  42.6808553  22.1302753  25.0334083
  42.5878553  21.7952753  24.3314083  47.7848553  31.4732753  22.7354083
  48.4858553  30.9912753  22.9244083  47.1248553  30.9042753  22.7804083
  47.7908553  31.3182753  22.7694083  37.1678553  17.4612753  22.6714083
  37.7038553  18.1492753  22.6614083  37.1708553  17.1872753  21.8434083
  37.2468553  17.5222753  22.5474083  46.3518553  21.8082753  30.2114083
  46.2568553  22.1272753  31.0174083  45.7588553  21.1692753  30.1734083
  46.2498553  21.7602753  30.3254083  47.0508553  28.5272753  28.4164083
  46.5368553  28.1152753  28.9874083  46.9248553  29.3712753  28.5974083
  46.9568553  28.5912753  28.5274083  47.6078553  17.7522753  23.0474083
  47.6568553  17.4342753  23.8584083  47.9308553  17.1082753  22.5544083
  47.6628553  17.6102753  23.0944083  50.0718553  21.9882753  31.3554083
  50.8438553  21.7632753  31.6924083  49.5968553  22.2052753  32.0554083
  50.1158553  21.9872753  31.5084083  37.6158553  21.2712753  24.3254083
  37.8878553  20.8412753  23.6174083  37.4398553  20.6352753  24.8964083
  37.6298553  21.1142753  24.3054083  50.3038553  28.9662753  18.5434083
  50.4228553  28.6792753  19.3584083  51.1108553  28.9872753  18.2134083
  50.4398553  28.9272753  18.6154083  37.4398553  28.6982753  23.8744083
  38.2908553  28.6182753  23.7014083  37.0828553  28.0162753  23.4624083
  37.5128553  28.5852753  23.7874083  36.2068553  35.4232753  25.1114083
  35.5338553  34.9252753  24.8664083  36.6098553  35.6082753  24.3604083
  36.1668553  35.3772753  24.9644083  35.7568553  22.3732753  27.4074083
  36.5998553  22.5932753  27.3644083  35.3678553  22.9462753  26.8764083
  35.8238553  22.4902753  27.3224083  52.5378553  33.4752753  32.7974083
  51.8558553  33.7852753  32.3504083  52.1688553  33.0172753  33.4424083
  52.3818553  33.4532753  32.8264083  48.1988553  25.5032753  18.1284083
  47.9788553  26.2342753  17.7064083  47.7508553  25.5542753  18.8754083
  48.0998553  25.6182753  18.1764083  39.8078553  28.7052753  22.1094083
  40.5208553  29.2002753  22.1994083  40.0298553  28.1382753  21.4834083
  39.9458553  28.6942753  22.0304083  52.3858553  20.3642753  17.5814083
  51.7238553  19.7962753  17.6044083  52.1928553  20.8762753  16.9014083
  52.2598553  20.3562753  17.4844083  33.9638553  30.3482753  25.4294083
  33.2968553  30.8362753  25.7054083  34.6438553  30.8932753  25.4584083
  33.9658553  30.5002753  25.4744083  41.6108553  24.0582753  35.5254083
  41.1268553  24.6352753  35.9674083  41.5828553  24.3532753  34.7044083
  41.5348553  24.1872753  35.4694083  52.7088553  24.7422753  30.1374083
  52.9238553  23.9422753  29.8614083  51.8588553  24.8022753  29.9484083
  52.6148553  24.6332753  30.0684083  34.0298553  27.0322753  20.5324083
  33.8448553  26.1932753  20.6844083  34.6888553  26.9962753  19.9624083
  34.0998553  26.9032753  20.4704083  50.3878553  19.9222753  19.8604083
  51.1338553  19.5152753  20.0594083  50.6508553  20.6372753  19.4354083
  50.5368553  19.9682753  19.8274083  44.3308553  32.4082753  24.4364083
  43.8078553  33.0422753  24.1434083  44.6408553  32.0442753  23.7074083
  44.2988553  32.4482753  24.2854083  34.2018553  31.1962753  20.1074083
  34.7538553  31.7652753  20.4714083  33.9698553  30.6812753  20.7724083
  34.2488553  31.2042753  20.2594083  46.8418553  22.2102753  24.9334083
  47.1858553  22.3622753  25.7204083  46.3888553  21.4722753  25.0464083
  46.8258553  22.1232753  25.0664083  34.0318553  29.6452753  17.7354083
  34.7878553  29.2132753  17.7934083  34.0468553  30.1772753  18.4264083
  34.1458553  29.6602753  17.8464083  34.9718553  27.8662753  25.7404083
  35.4028553  27.7372753  24.9934083  34.7668553  28.7142753  25.7144083
  35.0048553  27.9722753  25.6264083  41.3178553  21.4302753  19.3904083
  41.3158553  21.3132753  18.5254083  41.1368553  22.2782753  19.4824083
  41.2908553  21.5382753  19.2764083  50.3718553  33.8572753  30.8874083
  49.7008553  34.3712753  31.1054083  50.4348553  33.9572753  30.0234083
  50.2818553  33.9482753  30.7924083  39.0558553  31.3822753  24.0224083
  39.1818553  32.2252753  24.2094083  39.7238553  30.9832753  24.4184083
  39.1738553  31.4482753  24.1084083  37.6708553  24.2622753  19.0244083
  37.5428553  23.8142753  19.7624083  37.0888553  23.9202753  18.4724083
  37.5658553  24.1452753  19.0524083  37.8378553  26.0922753  25.6234083
  37.0568553  26.0332753  25.2404083  37.9098553  25.3402753  26.0604083
  37.7328553  25.9732753  25.6314083  48.1628553  23.5422753  27.4874083
  47.5008553  23.8702753  27.9504083  48.3498553  24.1762753  26.9184083
  48.0928553  23.6842753  27.4714083  42.3678553  34.6062753  28.4834083
  42.0908553  33.9652753  27.9604083  42.1598553  35.3322753  28.0454083
  42.2968553  34.6192753  28.3414083  44.8078553  19.4482753  30.9164083
  44.9568553  18.6232753  30.6734083  45.1868553  19.5032753  31.7004083
  44.8858553  19.3342753  30.9964083  46.3558553  21.5112753  20.9984083
  46.8458553  22.2282753  20.9214083  45.5658553  21.7722753  20.7354083
  46.3118553  21.6552753  20.9484083  47.6698553  29.3892753  32.9084083
  48.1538553  30.1072753  33.0064083  48.0638553  28.9622753  32.2574083
  47.7998553  29.4322753  32.8264083  41.9658553  32.2342753  34.0854083
  42.3198553  32.0562753  34.8624083  41.5298553  31.5052753  33.8864083
  41.9538553  32.1002753  34.1714083  42.9378553  22.9812753  26.7234083
  43.4178553  23.6802753  26.9314083  43.3108553  22.3342753  27.1744083
  43.0638553  22.9892753  26.8204083  45.1268553  26.1502753  18.9974083
  45.1188553  26.8722753  18.5074083  44.4878553  26.2852753  19.5744083
  45.0318553  26.2772753  19.0104083  50.0988553  30.0202753  22.9784083
  50.4548553  29.6702753  23.6934083  50.0908553  29.3592753  22.4084083
  50.1508553  29.8702753  22.9994083  46.1438553  33.0862753  26.8224083
  45.5408553  32.7902753  26.2654083  46.6888553  33.5382753  26.3134083
  46.1348553  33.1092753  26.6644083  46.1568553  29.9372753  26.2224083
  45.3598553  30.1612753  26.4964083  46.4148553  29.3432753  26.8074083
  46.0768553  29.8822753  26.3494083  40.0488553  34.7492753  20.6704083
  39.9018553  33.9732753  21.0414083  40.7378553  34.6022753  20.1554083
  40.1288553  34.6122753  20.6494083  39.7198553  18.4922753  18.6584083
  39.8168553  18.3852753  19.5194083  39.0118553  18.9982753  18.5934083
  39.6298553  18.5512753  18.7764083  42.3408553  34.2652753  19.0724083
  42.9628553  34.4282753  19.6624083  42.3768553  34.9562753  18.5404083
  42.4378553  34.3912753  19.0814083  49.4168553  27.9352753  31.0684083
  49.4718553  28.0602753  30.2064083  50.1698553  28.2552753  31.3704083
  49.5358553  28.0002753  30.9854083  45.6078553  33.2842753  35.3454083
  45.7718553  33.5672753  36.1544083  45.8708553  33.9452753  34.8404083
  45.6708553  33.4242753  35.3904083  50.4488553  18.2332753  34.0554083
  49.8118553  17.8332753  33.6134083  50.4748553  17.8022753  34.8134083
  50.3588553  18.1112753  34.1014083  36.8418553  26.7992753  19.9014083
  37.1658553  26.0202753  19.6794083  37.4878553  27.1672753  20.3564083
  36.9848553  26.7382753  19.9354083  45.1478553  27.7412753  30.6684083
  44.9928553  28.3512753  31.2724083  45.6818553  27.1832753  31.0744083
  45.2038553  27.7492753  30.8174083  33.8388553  18.4602753  20.8694083
  33.9678553  17.7522753  20.3774083  33.4718553  18.1422753  21.5944083
  33.8038553  18.3082753  20.9044083  43.5318553  26.1412753  21.3264083
  43.5908553  26.7912753  21.9054083  43.3428553  25.4452753  21.8174083
  43.5128553  26.1342753  21.4844083  48.7578553  30.4702753  27.1954083
  48.2788553  30.7682753  26.5294083  48.4018553  29.6942753  27.3734083
  48.6348553  30.3992753  27.1234083  38.0278553  20.6582753  17.8384083
  37.5168553  20.7112753  17.1324083  38.8118553  20.8982753  17.5424083
  38.0678553  20.7012753  17.6904083  42.7548553  28.1882753  25.7574083
  41.9078553  27.9942753  25.8384083  43.0788553  28.0232753  26.5504083
  42.6768553  28.1352753  25.8864083  39.5068553  34.9182753  16.6434083
  39.9458553  34.2212753  16.9314083  39.7138553  35.5422753  17.2164083
  39.6028553  34.9072753  16.7704083  39.8328553  23.0522753  24.8084083
  40.6788553  22.8622753  24.9064083  39.4628553  22.2752753  24.6704083
  39.9028553  22.9092753  24.8024083  52.4498553  34.6362753  19.1354083
  53.1438553  34.1692753  18.8874083  51.9108553  34.0382753  19.4724083
  52.4728553  34.4782753  19.1484083  34.6538553  24.3902753  21.4634083
  35.1428553  24.0982753  22.1244083  34.7828553  23.7972753  20.8364083
  34.7448553  24.2592753  21.4684083  49.6888553  27.4122753  28.3144083
  49.6818553  26.6362753  28.7124083  48.8478553  27.6462753  28.3074083
  49.5638553  27.3322753  28.3724083  39.1788553  25.8242753  16.9494083
  38.5688553  25.4192753  17.4234083  38.7928553  25.9422753  16.1764083
  39.0318553  25.7812753  16.9054083  50.9448553  27.4832753  25.7514083
  50.6588553  27.8842753  26.4714083  51.8048553  27.4212753  25.8784083
  51.0298553  27.5332753  25.8764083  40.6338553  24.2852753  19.6594083
  40.9058553  25.1112753  19.7264083  39.7708553  24.3602753  19.5634083
  40.5468553  24.4182753  19.6544083  48.6068553  21.4072753  34.2914083
  48.0818553  21.8662753  34.8154083  48.2458553  20.6122753  34.2854083
  48.4758553  21.3572753  34.3674083  52.0758553  33.1162753  26.2804083
  52.3658553  33.3732753  25.4994083  52.7708553  33.2122753  26.7994083
  52.2218553  33.1682753  26.2414083  47.0988553  24.9762753  34.3674083
  47.1718553  25.0802753  35.2304083  46.4648553  25.5342753  34.1464083
  47.0158553  25.0742753  34.4624083  49.3668553  25.2952753  32.7324083
  49.6858553  26.0812753  32.9354083  48.9968553  25.0252753  33.4754083
  49.3598553  25.3712753  32.8724083  48.6808553  31.7192753  18.2624083
  49.0148553  30.9132753  18.2974083  47.9258553  31.6472753  18.6924083
  48.6188553  31.5892753  18.3314083  49.1628553  23.5532753  23.9214083
  48.4178553  23.2302753  24.2394083  49.1648553  24.3792753  24.2014083
  49.0528553  23.6272753  24.0094083  52.0648553  25.8372753  35.4674083
  52.0128553  25.4962753  34.6664083  52.8018553  26.3042753  35.4454083
  52.1658553  25.8562753  35.3454083  51.6028553  29.5132753  31.6734083
  52.2308553  28.9642753  31.4174083  51.5418553  30.0782753  31.0114083
  51.6868553  29.5162753  31.5374083  46.0548553  29.5942753  17.6654083
  46.7388553  29.0802753  17.4964083  45.6378553  29.6402753  16.9004083
  46.0938553  29.5252753  17.5274083  48.0748553  19.8832753  31.3824083
  48.8188553  20.3352753  31.3194083  47.5088553  20.3532753  30.9134083
  48.1018553  20.0202753  31.3044083  43.2528553  27.1672753  28.4604083
  43.7288553  27.5412753  29.0884083  42.4298553  27.3012753  28.7194083
  43.2018553  27.2422753  28.5914083  39.9628553  22.7702753  31.2014083
  40.1238553  22.0262753  31.6284083  39.9178553  22.5212753  30.3664083
  39.9798553  22.6232753  31.1414083  42.5168553  34.5602753  23.6884083
  43.0628553  35.2392753  23.7424083  42.1668553  34.6422753  22.8934083
  42.5458553  34.6732753  23.5784083  49.3598553  17.8632753  29.0524083
  49.0798553  18.6882753  29.0084083  50.0758553  17.9162753  29.5484083
  49.4248553  17.9932753  29.1194083  41.7148553  18.5782753  31.0814083
  42.4198553  18.8982753  30.6794083  41.9558553  17.7712753  31.3084083
  41.8538553  18.5062753  31.0554083  40.6998553  32.7882753  27.0774083
  40.0758553  33.3702753  26.8954083  40.9478553  32.5022753  26.2914083
  40.6438553  32.8322753  26.9344083  45.0088553  29.4222753  34.0664083
  45.7658553  29.7082753  33.7404083  44.4618553  29.4742753  33.3884083
  45.0398553  29.4722753  33.9174083  48.9178553  31.9722753  32.5704083
  49.2638553  32.2422753  33.3244083  49.2118553  32.5542753  31.9904083
  49.0128553  32.0982753  32.5964083  50.7808553  24.1182753  17.9094083
  51.1588553  24.7952753  17.5094083  49.9388553  24.3422753  17.9404083
  50.7118553  24.2512753  17.8544083  42.2938553  27.5642753  16.9924083
  41.4888553  27.3872753  16.7074083  42.2608553  28.4152753  17.1844083
  42.1698553  27.6632753  16.9794083  38.2238553  23.6312753  27.1424083
  38.6638553  23.5282753  26.3964083  38.7688553  23.3182753  27.7474083
  38.3688553  23.5702753  27.1214083  46.2398553  22.7332753  32.7344083
  45.5918553  23.2032753  33.0824083  46.8048553  22.6442753  33.3934083
  46.2278553  22.7892753  32.8834083  45.9278553  24.2702753  29.0324083
  46.2298553  24.6902753  29.7354083  45.9638553  23.4302753  29.2644083
  45.9778553  24.2082753  29.1704083  43.3528553  34.4372753  32.9574083
  43.8308553  33.8372753  32.5414083  43.0018553  33.9942753  33.6224083
  43.3718553  34.2832753  32.9944083  48.4758553  23.7172753  21.2844083
  48.6828553  23.5162753  22.1084083  49.2318553  23.9852753  20.9424083
  48.6178553  23.7272753  21.3554083  41.7708553  18.6162753  27.1894083
  40.9448553  18.4672753  27.4264083  41.7308553  18.6512753  26.3184083
  41.6428553  18.5992753  27.0954083  49.4978553  19.8002753  22.7584083
  48.7838553  19.3292753  22.9294083  49.3358553  20.1412753  21.9724083
  49.3688553  19.7812753  22.6674083  49.9408553  27.7442753  21.1384083
  50.4168553  27.0152753  21.0904083  49.1198553  27.4582753  21.0624083
  49.8898553  27.5942753  21.1194083  43.4118553  29.6562753  31.9774083
  42.6168553  29.5922753  32.3284083  43.4828553  30.5032753  31.7824083
  43.3048553  29.7712753  32.0004083  34.3358553  19.0142753  33.2244083
  34.1958553  19.8092753  32.8934083  33.5498553  18.7712753  33.5134083
  34.1988553  19.0962753  33.2184083  39.2418553  35.8632753  27.2944083
  39.2528553  35.9222753  28.1644083  38.8168553  35.1162753  27.1444083
  39.1808553  35.7612753  27.4004083  37.3998553  21.7582753  20.4494083
  37.5258553  21.4292753  19.6514083  36.5878553  21.5092753  20.6484083
  37.2988553  21.6732753  20.3614083  46.1568553  28.9112753  23.4934083
  46.2328553  29.2522753  24.2924083  46.3258553  28.0642753  23.6144083
  46.1928553  28.8362753  23.6294083  43.6788553  28.1852753  23.0584083
  43.3808553  27.8702753  23.8154083  44.3738553  28.6582753  23.2934083
  43.7378553  28.2082753  23.2054083  43.9008553  32.3032753  31.0854083
  44.5878553  32.1892753  31.6104083  44.0348553  33.0942753  30.7414083
  44.0218553  32.4032753  31.1124083  52.0768553  24.9122753  32.8964083
  51.2218553  24.7902753  33.0224083  52.2298553  24.5172753  32.1334083
  51.9728553  24.8352753  32.8024083  36.0058553  35.3612753  32.7364083
  35.3518553  34.7922753  32.8344083  35.6308553  36.1342753  32.8874083
  35.8538553  35.3912753  32.7734083  44.5238553  26.7672753  34.6594083
  44.8468553  27.4532753  34.2274083  43.8198553  27.0902753  35.0614083
  44.4668553  26.9162753  34.6544083  47.6078553  35.1412753  25.5884083
  47.1568553  35.7842753  25.9674083  48.3158553  35.0622753  26.0934083
  47.6458553  35.2242753  25.7194083  44.3088553  30.2312753  28.5184083
  43.6148553  30.6332753  28.8614083  44.9858553  30.6642753  28.8574083
  44.3058553  30.3542753  28.6194083  49.6858553  32.8242753  35.0984083
  50.4618553  32.4342753  35.1814083  49.2168553  32.4882753  35.7534083
  49.7308553  32.7172753  35.2074083  50.7108553  24.8572753  20.5804083
  50.8138553  24.7992753  19.7164083  51.4518553  24.5252753  20.8984083
  50.8358553  24.8002753  20.4994083  37.7058553  19.6272753  32.5514083
  37.6248553  18.7832753  32.7574083  37.3918553  19.6712753  31.7384083
  37.6478553  19.5092753  32.4614083  44.6308553  31.8222753  21.6874083
  44.4258553  32.6552753  21.5284083  43.8558553  31.4402753  21.8094083
  44.4858553  31.8892753  21.6824083  49.8128553  25.0032753  29.9364083
  49.8108553  24.1402753  30.0604083  49.8798553  25.3272753  30.7434083
  49.8228553  24.9232753  30.0734083  36.0048553  23.3792753  16.9824083
  35.3328553  23.3932753  17.5384083  36.0998553  22.5312753  16.7984083
  35.9198553  23.2562753  17.0374083  45.6918553  19.8032753  33.7184083
  45.7838553  20.5152753  34.2124083  45.0548553  19.3582753  34.1154083
  45.6108553  19.8422753  33.8504083  44.6858553  19.9932753  24.5724083
  43.9858553  20.5112753  24.5164083  44.7238553  19.6132753  23.7884083
  44.5878553  20.0142753  24.4484083  39.9928553  32.0842753  18.0964083
  40.4338553  32.1642753  18.8444083  39.1878553  31.8682753  18.3544083
  39.9388553  32.0642753  18.2454083  48.2838553  20.5092753  27.3724083
  49.1388553  20.6082753  27.5174083  47.9148553  21.0622753  27.9374083
  48.3558553  20.6062753  27.4774083  48.5878553  25.7892753  25.8634083
  49.2538553  26.3302753  26.0234083  48.2428553  26.1002753  25.1244083
  48.6348553  25.9152753  25.7784083  48.9008553  33.8552753  21.6704083
  48.7268553  33.2012753  22.2204083  49.6138553  33.5842753  21.2474083
  48.9808553  33.7182753  21.6894083  37.3218553  31.1542753  18.6974083
  37.0778553  30.8472753  19.4774083  37.2888553  30.4512753  18.1814083
  37.2808553  31.0052753  18.7364083  40.1408553  29.3992753  17.4404083
  39.3228553  29.1312753  17.5804083  40.1128553  30.2512753  17.6254083
  40.0158553  29.4862753  17.4884083  39.7408553  19.7122753  29.1994083
  38.8768553  19.7962753  29.2794083  39.9608553  19.1982753  29.8684083
  39.6458553  19.6492753  29.3104083  51.7588553  18.3472753  30.5284083
  51.7068553  18.3032753  31.3984083  52.4458553  17.8442753  30.3384083
  51.8528553  18.2672753  30.6284083  43.8438553  20.4602753  27.5734083
  43.1068553  20.0062753  27.6864083  44.4148553  20.0582753  28.0964083
  43.8188553  20.3332753  27.6674083  46.5758553  31.3082753  29.3614083
  46.7818553  31.6092753  30.1534083  46.5148553  32.0302753  28.8764083
  46.5968553  31.4592753  29.4064083  46.1098553  35.5222753  33.6074083
  45.3568553  35.5042753  33.1664083  46.2778553  36.3742753  33.6914083
  46.0238553  35.6452753  33.5544083  41.3468553  24.7892753  32.7774083
  41.0248553  24.2132753  32.2074083  40.9878553  25.5442753  32.5314083
  41.2468553  24.8152753  32.6574083  42.1428553  18.0412753  17.4044083
  42.2208553  18.2882753  16.5714083  41.3998553  18.4182753  17.6624083
  42.0448553  18.1332753  17.3194083  51.3878553  29.9472753  28.8194083
  51.3558553  29.0852753  28.6844083  50.6948553  30.2492753  28.3854083
  51.2808553  29.8642753  28.7354083  39.7818553  35.1452753  33.0254083
  39.8228553  35.2712753  33.8884083  40.4328553  34.5852753  32.8694083
  39.8838553  35.0812753  33.1304083  36.9608553  19.7952753  29.8474083
  36.6178553  19.0282753  29.6134083  36.2658553  20.3192753  29.9114083
  36.8078553  19.7592753  29.8224083  46.0068553  18.6512753  26.8244083
  46.6768553  19.1952753  26.9514083  45.5038553  19.0752753  26.2514083
  46.0318553  18.7942753  26.7584083  37.3748553  33.5282753  34.3854083
  37.9698553  33.9592753  34.8574083  37.0108553  34.1522753  33.8964083
  37.4088553  33.6842753  34.3824083  45.3658553  24.4592753  24.3174083
  45.9168553  23.8522753  24.6174083  44.9408553  24.7222753  25.0324083
  45.3848553  24.4082753  24.4664083  35.6138553  23.1092753  23.8034083
  35.2458553  23.4112753  24.5344083  36.1478553  22.4802753  24.0874083
  35.6378553  23.0612753  23.9534083  35.3018553  31.5172753  31.3144083
  34.7278553  31.9332753  31.8234083  36.0348553  31.9822753  31.4094083
  35.3258553  31.6472753  31.4034083  47.3358553  26.2902753  20.8794083
  47.4038553  25.4402753  21.0604083  46.5128553  26.3762753  20.6014083
  47.2238553  26.1772753  20.8654083  37.0878553  34.7842753  20.0894083
  36.9428553  34.9402753  19.2434083  37.9538553  34.8632753  20.1674083
  37.1948553  34.8192753  19.9764083  41.2548553  27.1812753  19.8174083
  41.3548553  27.3202753  18.9624083  42.0728553  27.1212753  20.1134083
  41.3898553  27.1922753  19.7344083  50.4148553  35.2452753  17.2974083
  51.0518553  35.1112753  17.8784083  50.0738553  34.4512753  17.1804083
  50.4588553  35.1082753  17.3654083  50.6098553  27.6632753  34.0304083
  51.2438553  27.4932753  34.6044083  51.0268553  28.0662753  33.3784083
  50.7648553  27.6982753  34.0194083  46.4898553  31.5102753  19.6194083
  46.2388553  31.3822753  20.4454083  46.1728553  30.8152753  19.1984083
  46.4058553  31.3892753  19.6794083  51.2348553  22.2272753  34.7684083
  51.0388553  22.8712753  35.3234083  50.5128553  21.7372753  34.7604083
  51.0998553  22.2502753  34.8494083  51.1338553  23.1682753  27.7394083
  50.3008553  23.4182753  27.6674083  51.0778553  22.3282753  27.9684083
  51.0028553  23.0812753  27.7624083  40.3938553  20.1562753  32.9334083
  40.6278553  19.5802753  32.3204083  39.5518553  19.9752753  33.0744083
  40.3038553  20.0442753  32.8634083  48.0208553  27.7742753  35.3854083
  48.8918553  27.7382753  35.3494083  47.8018553  28.1942753  34.6534083
  48.1178553  27.8302753  35.2724083  37.7748553  33.5992753  26.5664083
  37.6958553  32.7892753  26.2504083  37.3308553  34.0862753  25.9944083
  37.6978553  33.5512753  26.4354083  43.3758553  29.7182753  19.0494083
  44.0928553  29.3712753  18.6934083  43.3418553  30.5182753  18.7014083
  43.4768553  29.7852753  18.9454083  35.3468553  35.8432753  30.1474083
  35.8398553  35.7872753  30.8654083  35.5348553  35.1102753  29.7124083
  35.4478553  35.7262753  30.1894083  44.7848553  18.3592753   3.2881673
  44.5398553  18.8472753   2.6081673  45.6478553  18.2862753   3.1881673
  44.8758553  18.4202753   3.1731673  44.5938553  25.2752753   7.9591673
  44.0698553  25.8712753   8.3221673  44.9908553  24.9072753   8.6431673
  44.5748553  25.3092753   8.1141673  34.4628553  29.4152753   3.4151673
  34.0218553  29.5332753   4.1581673  34.1798553  28.6402753   3.1301673
  34.3558553  29.3182753   3.4831673  47.2648553  26.3422753   4.6351673
  47.3448553  26.3462753   3.7661673  46.6808553  25.7102753   4.7841673
  47.1898553  26.2492753   4.5291673  36.9718553  30.1112753   2.4941673
  37.5798553  29.9412753   3.0971673  36.2208553  29.9712753   2.9151673
  36.9508553  30.0652753   2.6451673  41.2538553  19.4462753   2.4431673
  41.1838553  20.1232753   1.8971673  41.9948553  19.0582753   2.1941673
  41.3528553  19.4892753   2.3251673  34.4028553  32.1502753   9.6701673
  34.5318553  31.8702753  10.4861673  33.7928553  31.6092753   9.3611673
  34.3318553  32.0292753   9.7451673  40.9768553  29.6752753  14.7371673
  40.7408553  29.6722753  15.5771673  40.2288553  29.5272753  14.3131673
  40.8308553  29.6522753  14.7981673  35.8488553  26.6712753   3.8721673
  35.3868553  26.2792753   3.2451673  36.5488553  26.1582753   3.9641673
  35.8838553  26.5382753   3.7931673  40.3568553  22.2812753   9.2191673
  41.0348553  22.2992753   8.6701673  40.3118553  21.4452753   9.4641673
  40.4498553  22.1602753   9.1741673  40.9588553  32.8672753  12.0001673
  41.0968553  33.6272753  11.5931673  41.7498553  32.5022753  12.0271673
  41.0958553  32.9262753  11.9441673  37.8498553  24.7712753   3.8951673
  38.6668553  24.5842753   4.1381673  37.3728553  24.1572753   4.2911673
  37.8998553  24.6532753   3.9901673  42.0538553  30.7522753   6.5051673
  42.4018553  29.9532753   6.5351673  42.7188553  31.2562753   6.2501673
  42.2038553  30.7082753   6.4721673  42.1108553  30.2012753   2.7161673
  42.4418553  29.5572753   3.2021673  42.3508553  29.9902753   1.9051673
  42.1948553  30.0752753   2.6681673  44.0788553  24.3322753  14.0551673
  43.2308553  24.2332753  13.8771673  44.1078553  25.0772753  14.5091673
  43.9578553  24.4282753  14.0961673  38.4468553  19.8652753   3.1611673
  38.1508553  20.3662753   2.5111673  39.3138553  19.9432753   3.1041673
  38.5308553  19.9512753   3.0571673  48.6368553  17.2922753  13.1691673
  48.4788553  18.0612753  12.7871673  47.8648553  17.0722753  13.5131673
  48.4988553  17.3732753  13.1641673  41.4258553  19.0072753   5.3841673
  41.4988553  19.8672753   5.5131673  41.3878553  18.9322753   4.5161673
  41.4308553  19.1232753   5.2751673  34.3048553  24.4322753   6.8851673
  34.0488553  25.2632753   6.8101673  33.6408553  24.0492753   7.3021673
  34.1688553  24.4982753   6.9361673  34.2148553  34.1422753   4.7851673
  33.6228553  34.7002753   4.4721673  34.6408553  33.8732753   4.0731673
  34.1908553  34.1842753   4.6341673  40.0548553  31.9862753   2.2651673
  39.4758553  31.7112753   2.8571673  40.6788553  31.3772753   2.2901673
  40.0618553  31.8562753   2.3561673  44.3658553  34.6662753   1.7771673
  44.5798553  35.1932753   2.4391673  45.1328553  34.4922753   1.3981673
  44.5108553  34.7182753   1.8191673  37.3338553  19.2492753   7.3761673
  36.8128553  18.6212753   7.0681673  37.9248553  18.8122753   7.8471673
  37.3448553  19.0912753   7.4001673  40.6398553  21.3822753  16.6741673
  40.7568553  20.9282753  15.9381673  40.9278553  22.1802753  16.4711673
  40.6998553  21.4332753  16.5351673  35.7598553  32.8122753   2.7161673
  36.4158553  32.2372753   2.7311673  36.1488553  33.5612753   2.4951673
  35.9148553  32.8372753   2.6861673  51.4928553  21.9062753   3.9781673
  51.1468553  22.5842753   4.4041673  50.8568553  21.3082753   3.9941673
  51.3478553  21.9182753   4.0431673  46.8048553  34.6762753  10.0821673
  47.5488553  35.1322753  10.0721673  46.6838553  34.4622753   9.2451673
  46.8968553  34.7122753   9.9571673  36.3728553  20.9792753  15.6581673
  35.5948553  20.5892753  15.5861673  36.8638553  20.5672753  15.0671673
  36.3298553  20.8602753  15.5601673  36.5778553  31.2992753   6.2161673
  37.0008553  30.9432753   5.5421673  36.9018553  30.8772753   6.9081673
  36.6878553  31.1842753   6.2191673  39.8088553  34.1512753   5.5121673
  40.6528553  34.2552753   5.3171673  39.5118553  34.9692753   5.5801673
  39.8898553  34.2872753   5.4931673  43.0218553  18.6222753  14.8261673
  43.1998553  17.8132753  14.5511673  42.8788553  19.0632753  14.0871673
  43.0268553  18.5682753  14.6761673  43.6158553  23.5482753   3.5991673
  43.9028553  23.3162753   2.8091673  44.3478553  23.6272753   4.0681673
  43.7658553  23.5252753   3.5521673  38.8068553  35.3702753  11.2521673
  39.0988553  35.3032753  12.0721673  38.1808553  34.7652753  11.2071673
  38.7578553  35.2712753  11.3671673  51.1678553  20.2292753   9.3471673
  51.9248553  20.3012753   8.9191673  51.2308553  19.4562753   9.7461673
  51.2888553  20.1262753   9.3421673  33.7208553  21.5272753  13.2441673
  33.7168553  22.1142753  13.8901673  34.3148553  21.8392753  12.6871673
  33.8078553  21.6602753  13.2571673  46.0588553  31.8612753  13.7861673
  46.0248553  32.2432753  14.5701673  46.9128553  31.8192753  13.6151673
  46.1798553  31.9112753  13.8771673  34.6578553  21.1222753   2.1591673
  34.5438553  20.2582753   2.1901673  34.1828553  21.4162753   2.8291673
  34.5708553  21.0382753   2.2621673  36.7998553  33.5322753  10.3741673
  36.1018553  33.0242753  10.5001673  37.0598553  33.3272753   9.5661673
  36.7348553  33.4272753  10.2731673  44.5108553  35.0252753  11.2841673
  45.2788553  34.9452753  10.8781673  43.9278553  34.9042753  10.6461673
  44.5378553  34.9952753  11.1301673  50.7878553  35.6282753   4.1851673
  50.3328553  36.3452753   4.3861673  50.1738553  35.0572753   3.9431673
  50.6298553  35.6502753   4.1791673  42.5598553  21.6382753   5.3171673
  42.6338553  22.2062753   4.6591673  42.6808553  22.1302753   6.0271673
  42.5878553  21.7952753   5.3251673  47.7848553  31.4732753   3.7291673
  48.4858553  30.9912753   3.9181673  47.1248553  30.9042753   3.7741673
  47.7908553  31.3182753   3.7631673  38.1608553  32.3832753  12.9411673
  39.0018553  32.4462753  12.7191673  38.1238553  32.7802753  13.7171673
  38.2798553  32.4512753  13.0231673  37.1678553  17.4612753   3.6651673
  37.7038553  18.1492753   3.6551673  37.1708553  17.1872753   2.8371673
  37.2468553  17.5222753   3.5411673  40.1238553  27.8942753   7.6901673
  40.2958553  27.6842753   8.5191673  39.4688553  27.3602753   7.4741673
  40.0528553  27.7842753   7.7811673  46.3518553  21.8082753  11.2051673
  46.2568553  22.1272753  12.0111673  45.7588553  21.1692753  11.1671673
  46.2498553  21.7602753  11.3191673  40.8738553  27.8322753  10.2801673
  40.9268553  28.6792753  10.4821673  40.5888553  27.4622753  11.0171673
  40.8398553  27.9022753  10.4181673  47.0508553  28.5272753   9.4101673
  46.5368553  28.1152753   9.9811673  46.9248553  29.3712753   9.5911673
  46.9568553  28.5912753   9.5211673  47.6078553  17.7522753   4.0411673
  47.6568553  17.4342753   4.8521673  47.9308553  17.1082753   3.5481673
  47.6628553  17.6102753   4.0881673  33.6948553  32.2032753  16.4911673
  34.4508553  32.5522753  16.7491673  33.8718553  31.3502753  16.4341673
  33.8328553  32.1282753  16.5211673  50.0718553  21.9882753  12.3491673
  50.8438553  21.7632753  12.6861673  49.5968553  22.2052753  13.0491673
  50.1158553  21.9872753  12.5021673  37.6158553  21.2712753   5.3191673
  37.8878553  20.8412753   4.6111673  37.4398553  20.6352753   5.8901673
  37.6298553  21.1142753   5.2991673  37.4398553  28.6982753   4.8681673
  38.2908553  28.6182753   4.6951673  37.0828553  28.0162753   4.4561673
  37.5128553  28.5852753   4.7811673  36.2068553  35.4232753   6.1051673
  35.5338553  34.9252753   5.8601673  36.6098553  35.6082753   5.3541673
  36.1668553  35.3772753   5.9581673  35.7568553  22.3732753   8.4011673
  36.5998553  22.5932753   8.3581673  35.3678553  22.9462753   7.8701673
  35.8238553  22.4902753   8.3161673  52.5378553  33.4752753  13.7911673
  51.8558553  33.7852753  13.3441673  52.1688553  33.0172753  14.4361673
  52.3818553  33.4532753  13.8201673  39.8078553  28.7052753   3.1031673
  40.5208553  29.2002753   3.1931673  40.0298553  28.1382753   2.4771673
  39.9458553  28.6942753   3.0241673  33.9638553  30.3482753   6.4231673
  33.2968553  30.8362753   6.6991673  34.6438553  30.8932753   6.4521673
  33.9658553  30.5002753   6.4681673  41.6108553  24.0582753  16.5191673
  41.1268553  24.6352753  16.9611673  41.5828553  24.3532753  15.6981673
  41.5348553  24.1872753  16.4631673  52.7088553  24.7422753  11.1311673
  52.9238553  23.9422753  10.8551673  51.8588553  24.8022753  10.9421673
  52.6148553  24.6332753  11.0621673  44.3308553  32.4082753   5.4301673
  43.8078553  33.0422753   5.1371673  44.6408553  32.0442753   4.7011673
  44.2988553  32.4482753   5.2791673  38.4058553  30.1962753   8.1901673
  38.8728553  30.4852753   8.8681673  38.9778553  29.7182753   7.7361673
  38.5598553  30.1682753   8.2231673  46.8418553  22.2102753   5.9271673
  47.1858553  22.3622753   6.7141673  46.3888553  21.4722753   6.0401673
  46.8258553  22.1232753   6.0601673  34.9718553  27.8662753   6.7341673
  35.4028553  27.7372753   5.9871673  34.7668553  28.7142753   6.7081673
  35.0048553  27.9722753   6.6201673  50.3718553  33.8572753  11.8811673
  49.7008553  34.3712753  12.0991673  50.4348553  33.9572753  11.0171673
  50.2818553  33.9482753  11.7861673  39.0558553  31.3822753   5.0161673
  39.1818553  32.2252753   5.2031673  39.7238553  30.9832753   5.4121673
  39.1738553  31.4482753   5.1021673  37.1858553  24.8652753  14.8781673
  36.6498553  24.3592753  15.3461673  37.2058553  24.4752753  14.0981673
  37.1088553  24.7322753  14.8321673  37.8378553  26.0922753   6.6171673
  37.0568553  26.0332753   6.2341673  37.9098553  25.3402753   7.0541673
  37.7328553  25.9732753   6.6251673  38.2678553  25.8292753  10.0851673
  38.2928553  25.1542753   9.5341673  37.6218553  26.3252753   9.7731673
  38.1768553  25.8022753   9.9581673  48.1628553  23.5422753   8.4811673
  47.5008553  23.8702753   8.9441673  48.3498553  24.1762753   7.9121673
  48.0928553  23.6842753   8.4651673  42.3678553  34.6062753   9.4771673
  42.0908553  33.9652753   8.9541673  42.1598553  35.3322753   9.0391673
  42.2968553  34.6192753   9.3351673  44.8078553  19.4482753  11.9101673
  44.9568553  18.6232753  11.6671673  45.1868553  19.5032753  12.6941673
  44.8858553  19.3342753  11.9901673  46.3558553  21.5112753   1.9921673
  46.8458553  22.2282753   1.9151673  45.5658553  21.7722753   1.7291673
  46.3118553  21.6552753   1.9421673  36.0668553  27.1842753  15.6441673
  36.0298553  27.6852753  14.9301673  36.3978553  26.4322753  15.3491673
  36.1098553  27.1462753  15.4951673  47.6698553  29.3892753  13.9021673
  48.1538553  30.1072753  14.0001673  48.0638553  28.9622753  13.2511673
  47.7998553  29.4322753  13.8201673  41.9658553  32.2342753  15.0791673
  42.3198553  32.0562753  15.8561673  41.5298553  31.5052753  14.8801673
  41.9538553  32.1002753  15.1651673  42.9378553  22.9812753   7.7171673
  43.4178553  23.6802753   7.9251673  43.3108553  22.3342753   8.1681673
  43.0638553  22.9892753   7.8141673  50.0988553  30.0202753   3.9721673
  50.4548553  29.6702753   4.6871673  50.0908553  29.3592753   3.4021673
  50.1508553  29.8702753   3.9931673  46.1438553  33.0862753   7.8161673
  45.5408553  32.7902753   7.2591673  46.6888553  33.5382753   7.3071673
  46.1348553  33.1092753   7.6581673  46.1568553  29.9372753   7.2161673
  45.3598553  30.1612753   7.4901673  46.4148553  29.3432753   7.8011673
  46.0768553  29.8822753   7.3431673  49.4168553  27.9352753  12.0621673
  49.4718553  28.0602753  11.2001673  50.1698553  28.2552753  12.3641673
  49.5358553  28.0002753  11.9791673  45.6078553  33.2842753  16.3391673
  45.7718553  33.5672753  17.1481673  45.8708553  33.9452753  15.8341673
  45.6708553  33.4242753  16.3841673  50.4488553  18.2332753  15.0491673
  49.8118553  17.8332753  14.6071673  50.4748553  17.8022753  15.8071673
  50.3588553  18.1112753  15.0951673  45.1478553  27.7412753  11.6621673
  44.9928553  28.3512753  12.2661673  45.6818553  27.1832753  12.0681673
  45.2038553  27.7492753  11.8111673  33.8388553  18.4602753   1.8631673
  33.9678553  17.7522753   1.3711673  33.4718553  18.1422753   2.5881673
  33.8038553  18.3082753   1.8981673  43.5318553  26.1412753   2.3201673
  43.5908553  26.7912753   2.8991673  43.3428553  25.4452753   2.8111673
  43.5128553  26.1342753   2.4781673  48.7578553  30.4702753   8.1891673
  48.2788553  30.7682753   7.5231673  48.4018553  29.6942753   8.3671673
  48.6348553  30.3992753   8.1171673  42.7548553  28.1882753   6.7511673
  41.9078553  27.9942753   6.8321673  43.0788553  28.0232753   7.5441673
  42.6768553  28.1352753   6.8801673  36.6028553  27.8812753   9.0671673
  37.3248553  28.3692753   9.0301673  36.3328553  27.8512753   8.2381673
  36.6698553  27.9492753   8.9391673  39.8328553  23.0522753   5.8021673
  40.6788553  22.8622753   5.9001673  39.4628553  22.2752753   5.6641673
  39.9028553  22.9092753   5.7961673  34.6538553  24.3902753   2.4571673
  35.1428553  24.0982753   3.1181673  34.7828553  23.7972753   1.8301673
  34.7448553  24.2592753   2.4621673  49.6888553  27.4122753   9.3081673
  49.6818553  26.6362753   9.7061673  48.8478553  27.6462753   9.3011673
  49.5638553  27.3322753   9.3661673  35.9978553  28.9332753  13.3451673
  35.5768553  28.4152753  12.7841673  35.6458553  29.7192753  13.2021673
  35.8838553  28.9732753  13.2411673  50.9448553  27.4832753   6.7451673
  50.6588553  27.8842753   7.4651673  51.8048553  27.4212753   6.8721673
  51.0298553  27.5332753   6.8701673  48.6068553  21.4072753  15.2851673
  48.0818553  21.8662753  15.8091673  48.2458553  20.6122753  15.2791673
  48.4758553  21.3572753  15.3611673  34.1138553  20.2552753   7.1891673
  34.1578553  20.5992753   6.3881673  34.8688553  20.4922753   7.5561673
  34.2318553  20.3412753   7.1251673  52.0758553  33.1162753   7.2741673
  52.3658553  33.3732753   6.4931673  52.7708553  33.2122753   7.7931673
  52.2218553  33.1682753   7.2351673  47.0988553  24.9762753  15.3611673
  47.1718553  25.0802753  16.2241673  46.4648553  25.5342753  15.1401673
  47.0158553  25.0742753  15.4561673  49.3668553  25.2952753  13.7261673
  49.6858553  26.0812753  13.9291673  48.9968553  25.0252753  14.4691673
  49.3598553  25.3712753  13.8661673  49.1628553  23.5532753   4.9151673
  48.4178553  23.2302753   5.2331673  49.1648553  24.3792753   5.1951673
  49.0528553  23.6272753   5.0031673  52.0648553  25.8372753  16.4611673
  52.0128553  25.4962753  15.6601673  52.8018553  26.3042753  16.4391673
  52.1658553  25.8562753  16.3391673  51.6028553  29.5132753  12.6671673
  52.2308553  28.9642753  12.4111673  51.5418553  30.0782753  12.0051673
  51.6868553  29.5162753  12.5311673  40.7368553  30.7442753   9.9631673
  40.4388553  31.3362753  10.5301673  40.7918553  31.1862753   9.2141673
  40.7008553  30.8972753   9.9361673  38.7158553  29.6942753  13.3611673
  37.9098553  29.4042753  13.5281673  38.6268553  30.5622753  13.3671673
  38.5838553  29.7792753  13.3861673  48.0748553  19.8832753  12.3761673
  48.8188553  20.3352753  12.3131673  47.5088553  20.3532753  11.9071673
  48.1018553  20.0202753  12.2981673  43.2528553  27.1672753   9.4541673
  43.7288553  27.5412753  10.0821673  42.4298553  27.3012753   9.7131673
  43.2018553  27.2422753   9.5851673  39.9628553  22.7702753  12.1951673
  40.1238553  22.0262753  12.6221673  39.9178553  22.5212753  11.3601673
  39.9798553  22.6232753  12.1351673  42.5168553  34.5602753   4.6821673
  43.0628553  35.2392753   4.7361673  42.1668553  34.6422753   3.8871673
  42.5458553  34.6732753   4.5721673  49.3598553  17.8632753  10.0461673
  49.0798553  18.6882753  10.0021673  50.0758553  17.9162753  10.5421673
  49.4248553  17.9932753  10.1131673  41.7148553  18.5782753  12.0751673
  42.4198553  18.8982753  11.6731673  41.9558553  17.7712753  12.3021673
  41.8538553  18.5062753  12.0491673  40.6998553  32.7882753   8.0711673
  40.0758553  33.3702753   7.8891673  40.9478553  32.5022753   7.2851673
  40.6438553  32.8322753   7.9281673  45.0088553  29.4222753  15.0601673
  45.7658553  29.7082753  14.7341673  44.4618553  29.4742753  14.3821673
  45.0398553  29.4722753  14.9111673  48.9178553  31.9722753  13.5641673
  49.2638553  32.2422753  14.3181673  49.2118553  32.5542753  12.9841673
  49.0128553  32.0982753  13.5901673  38.2238553  23.6312753   8.1361673
  38.6638553  23.5282753   7.3901673  38.7688553  23.3182753   8.7411673
  38.3688553  23.5702753   8.1151673  46.2398553  22.7332753  13.7281673
  45.5918553  23.2032753  14.0761673  46.8048553  22.6442753  14.3871673
  46.2278553  22.7892753  13.8771673  45.9278553  24.2702753  10.0261673
  46.2298553  24.6902753  10.7291673  45.9638553  23.4302753  10.2581673
  45.9778553  24.2082753  10.1641673  43.3528553  34.4372753  13.9511673
  43.8308553  33.8372753  13.5351673  43.0018553  33.9942753  14.6161673
  43.3718553  34.2832753  13.9881673  48.4758553  23.7172753   2.2781673
  48.6828553  23.5162753   3.1021673  49.2318553  23.9852753   1.9361673
  48.6178553  23.7272753   2.3491673  41.7708553  18.6162753   8.1831673
  40.9448553  18.4672753   8.4201673  41.7308553  18.6512753   7.3121673
  41.6428553  18.5992753   8.0891673  49.4978553  19.8002753   3.7521673
  48.7838553  19.3292753   3.9231673  49.3358553  20.1412753   2.9661673
  49.3688553  19.7812753   3.6611673  49.9408553  27.7442753   2.1321673
  50.4168553  27.0152753   2.0841673  49.1198553  27.4582753   2.0561673
  49.8898553  27.5942753   2.1131673  43.4118553  29.6562753  12.9711673
  42.6168553  29.5922753  13.3221673  43.4828553  30.5032753  12.7761673
  43.3048553  29.7712753  12.9941673  34.3358553  19.0142753  14.2181673
  34.1958553  19.8092753  13.8871673  33.5498553  18.7712753  14.5071673
  34.1988553  19.0962753  14.2121673  39.2418553  35.8632753   8.2881673
  39.2528553  35.9222753   9.1581673  38.8168553  35.1162753   8.1381673
  39.1808553  35.7612753   8.3941673  46.1568553  28.9112753   4.4871673
  46.2328553  29.2522753   5.2861673  46.3258553  28.0642753   4.6081673
  46.1928553  28.8362753   4.6231673  43.6788553  28.1852753   4.0521673
  43.3808553  27.8702753   4.8091673  44.3738553  28.6582753   4.2871673
  43.7378553  28.2082753   4.1991673  43.9008553  32.3032753  12.0791673
  44.5878553  32.1892753  12.6041673  44.0348553  33.0942753  11.7351673
  44.0218553  32.4032753  12.1061673  52.0768553  24.9122753  13.8901673
  51.2218553  24.7902753  14.0161673  52.2298553  24.5172753  13.1271673
  51.9728553  24.8352753  13.7961673  46.5898553  25.5772753  12.4661673
  46.3348553  24.8582753  12.8881673  47.4108553  25.6932753  12.7361673
  46.6738553  25.4882753  12.5681673  36.0058553  35.3612753  13.7301673
  35.3518553  34.7922753  13.8281673  35.6308553  36.1342753  13.8811673
  35.8538553  35.3912753  13.7671673  44.5238553  26.7672753  15.6531673
  44.8468553  27.4532753  15.2211673  43.8198553  27.0902753  16.0551673
  44.4668553  26.9162753  15.6481673  47.6078553  35.1412753   6.5821673
  47.1568553  35.7842753   6.9611673  48.3158553  35.0622753   7.0871673
  47.6458553  35.2242753   6.7131673  44.3088553  30.2312753   9.5121673
  43.6148553  30.6332753   9.8551673  44.9858553  30.6642753   9.8511673
  44.3058553  30.3542753   9.6131673  49.6858553  32.8242753  16.0921673
  50.4618553  32.4342753  16.1751673  49.2168553  32.4882753  16.7471673
  49.7308553  32.7172753  16.2011673  37.3768553  23.7692753  11.8591673
  37.7518553  24.3882753  11.3721673  38.0508553  23.2952753  12.1441673
  37.5318553  23.7912753  11.8291673  35.1518553  22.2172753  11.1341673
  35.2288553  22.0482753  10.2811673  35.8978553  22.6232753  11.3311673
  35.2728553  22.2522753  11.0371673  37.7058553  19.6272753  13.5451673
  37.6248553  18.7832753  13.7511673  37.3918553  19.6712753  12.7321673
  37.6478553  19.5092753  13.4551673  44.6308553  31.8222753   2.6811673
  44.4258553  32.6552753   2.5221673  43.8558553  31.4402753   2.8031673
  44.4858553  31.8892753   2.6761673  49.8128553  25.0032753  10.9301673
  49.8108553  24.1402753  11.0541673  49.8798553  25.3272753  11.7371673
  49.8228553  24.9232753  11.0671673  34.5488553  27.4432753  11.3581673
  34.8688553  27.6622753  10.5771673  34.4488553  26.5782753  11.3031673
  34.5808553  27.3482753  11.2351673  45.6918553  19.8032753  14.7121673
  45.7838553  20.5152753  15.2061673  45.0548553  19.3582753  15.1091673
  45.6108553  19.8422753  14.8441673  44.6858553  19.9932753   5.5661673
  43.9858553  20.5112753   5.5101673  44.7238553  19.6132753   4.7821673
  44.5878553  20.0142753   5.4421673  48.2838553  20.5092753   8.3661673
  49.1388553  20.6082753   8.5111673  47.9148553  21.0622753   8.9311673
  48.3558553  20.6062753   8.4711673  39.3118553  26.7352753  12.7431673
  38.9158553  27.5092753  12.8181673  38.9058553  26.3622753  12.0671673
  39.1938553  26.7942753  12.6541673  48.5878553  25.7892753   6.8571673
  49.2538553  26.3302753   7.0171673  48.2428553  26.1002753   6.1181673
  48.6348553  25.9152753   6.7721673  48.9008553  33.8552753   2.6641673
  48.7268553  33.2012753   3.2141673  49.6138553  33.5842753   2.2411673
  48.9808553  33.7182753   2.6831673  39.7408553  19.7122753  10.1931673
  38.8768553  19.7962753  10.2731673  39.9608553  19.1982753  10.8621673
  39.6458553  19.6492753  10.3041673  51.7588553  18.3472753  11.5221673
  51.7068553  18.3032753  12.3921673  52.4458553  17.8442753  11.3321673
  51.8528553  18.2672753  11.6221673  43.8438553  20.4602753   8.5671673
  43.1068553  20.0062753   8.6801673  44.4148553  20.0582753   9.0901673
  43.8188553  20.3332753   8.6611673  46.5758553  31.3082753  10.3551673
  46.7818553  31.6092753  11.1471673  46.5148553  32.0302753   9.8701673
  46.5968553  31.4592753  10.4001673  46.1098553  35.5222753  14.6011673
  45.3568553  35.5042753  14.1601673  46.2778553  36.3742753  14.6851673
  46.0238553  35.6452753  14.5481673  41.3468553  24.7892753  13.7711673
  41.0248553  24.2132753  13.2011673  40.9878553  25.5442753  13.5251673
  41.2468553  24.8152753  13.6511673  51.3878553  29.9472753   9.8131673
  51.3558553  29.0852753   9.6781673  50.6948553  30.2492753   9.3791673
  51.2808553  29.8642753   9.7291673  39.7818553  35.1452753  14.0191673
  39.8228553  35.2712753  14.8821673  40.4328553  34.5852753  13.8631673
  39.8838553  35.0812753  14.1241673  49.4928553  33.2072753   8.6101673
  50.0198553  33.1242753   7.9191673  49.1018553  32.4292753   8.6641673
  49.5128553  33.0802753   8.5161673  36.9608553  19.7952753  10.8411673
  36.6178553  19.0282753  10.6071673  36.2658553  20.3192753  10.9051673
  36.8078553  19.7592753  10.8161673  46.0068553  18.6512753   7.8181673
  46.6768553  19.1952753   7.9451673  45.5038553  19.0752753   7.2451673
  46.0318553  18.7942753   7.7521673  37.3748553  33.5282753  15.3791673
  37.9698553  33.9592753  15.8511673  37.0108553  34.1522753  14.8901673
  37.4088553  33.6842753  15.3761673  45.3658553  24.4592753   5.3111673
  45.9168553  23.8522753   5.6111673  44.9408553  24.7222753   6.0261673
  45.3848553  24.4082753   5.4601673  35.6138553  23.1092753   4.7971673
  35.2458553  23.4112753   5.5281673  36.1478553  22.4802753   5.0811673
  35.6378553  23.0612753   4.9471673  35.3018553  31.5172753  12.3081673
  34.7278553  31.9332753  12.8171673  36.0348553  31.9822753  12.4031673
  35.3258553  31.6472753  12.3971673  47.3358553  26.2902753   1.8731673
  47.4038553  25.4402753   2.0541673  46.5128553  26.3762753   1.5951673
  47.2238553  26.1772753   1.8591673  50.6098553  27.6632753  15.0241673
  51.2438553  27.4932753  15.5981673  51.0268553  28.0662753  14.3721673
  50.7648553  27.6982753  15.0131673  51.2348553  22.2272753  15.7621673
  51.0388553  22.8712753  16.3171673  50.5128553  21.7372753  15.7541673
  51.0998553  22.2502753  15.8431673  51.1338553  23.1682753   8.7331673
  50.3008553  23.4182753   8.6611673  51.0778553  22.3282753   8.9621673
  51.0028553  23.0812753   8.7561673  40.3938553  20.1562753  13.9271673
  40.6278553  19.5802753  13.3141673  39.5518553  19.9752753  14.0681673
  40.3038553  20.0442753  13.8571673  48.0208553  27.7742753  16.3791673
  48.8918553  27.7382753  16.3431673  47.8018553  28.1942753  15.6471673
  48.1178553  27.8302753  16.2661673  37.7748553  33.5992753   7.5601673
  37.6958553  32.7892753   7.2441673  37.3308553  34.0862753   6.9881673
  37.6978553  33.5512753   7.4291673  35.3468553  35.8432753  11.1411673
  35.8398553  35.7872753  11.8591673  35.5348553  35.1102753  10.7061673
  35.4478553  35.7262753  11.1831673  44.5938553   6.7971673  83.9841313
  44.0698553   7.3931673  84.3471313  44.9908553   6.4291673  84.6681313
  44.5748553   6.8311673  84.1391313  34.4628553  10.9371673  79.4401313
  34.0218553  11.0551673  80.1831313  34.1798553  10.1621673  79.1551313
  34.3558553  10.8401673  79.5081313  50.7378553  14.2381673  76.9551313
  51.4388553  13.7191673  76.9511313  50.1508553  13.7931673  76.4861313
  50.7548553  14.0951673  76.8851313  34.2058553   4.7291673  75.9471313
  33.4278553   4.8911673  75.5871313  34.2448553   3.8581673  75.9691313
  34.0968553   4.6241673  75.8971313  37.3448553   9.9921673  74.6191313
  36.9528553   9.6211673  73.9331313  37.2648553   9.3941673  75.2481313
  37.2748553   9.8491673  74.6101313  47.2648553   7.8641673  80.6601313
  47.3448553   7.8681673  79.7911313  46.6808553   7.2321673  80.8091313
  47.1898553   7.7711673  80.5541313  36.9718553  11.6331673  78.5191313
  37.5798553  11.4631673  79.1221313  36.2208553  11.4931673  78.9401313
  36.9508553  11.5871673  78.6701313  35.8628553  14.7241673  74.5961313
  36.3298553  14.8081673  73.8641313  36.3178553  14.1461673  75.0651313
  35.9988553  14.6511673  74.5571313  34.4028553  13.6721673  85.6951313
  34.5318553  13.3921673  86.5111313  33.7928553  13.1311673  85.3861313
  34.3318553  13.5511673  85.7701313  35.8488553   8.1931673  79.8971313
  35.3868553   7.8011673  79.2701313  36.5488553   7.6801673  79.9891313
  35.8838553   8.0601673  79.8181313  40.3568553   3.8031673  85.2441313
  41.0348553   3.8211673  84.6951313  40.3118553   2.9671673  85.4891313
  40.4498553   3.6821673  85.1991313  40.9588553  14.3891673  88.0251313
  41.0968553  15.1491673  87.6181313  41.7498553  14.0241673  88.0521313
  41.0958553  14.4481673  87.9691313  37.8498553   6.2931673  79.9201313
  38.6668553   6.1061673  80.1631313  37.3728553   5.6791673  80.3161313
  37.8998553   6.1751673  80.0151313  42.0538553  12.2741673  82.5301313
  42.4018553  11.4751673  82.5601313  42.7188553  12.7781673  82.2751313
  42.2038553  12.2301673  82.4971313  42.1108553  11.7231673  78.7411313
  42.4418553  11.0791673  79.2271313  42.3508553  11.5121673  77.9301313
  42.1948553  11.5971673  78.6931313  46.0988553   3.4551673  73.7081313
  45.6488553   4.1361673  74.0151313  46.2128553   2.9511673  74.4111313
  46.0498553   3.4811673  73.8571313  34.3048553   5.9541673  82.9101313
  34.0488553   6.7851673  82.8351313  33.6408553   5.5711673  83.3271313
  34.1688553   6.0201673  82.9611313  34.2148553  15.6641673  80.8101313
  33.6228553  16.2221673  80.4971313  34.6408553  15.3951673  80.0981313
  34.1908553  15.7061673  80.6591313  40.0548553  13.5081673  78.2901313
  39.4758553  13.2331673  78.8821313  40.6788553  12.8991673  78.3151313
  40.0618553  13.3781673  78.3811313  46.1978553  15.7961673  75.8121313
  46.9248553  16.2681673  75.9141313  46.4268553  15.0021673  76.0921313
  46.3398553  15.7491673  75.8691313  44.3658553  16.1881673  77.8021313
  44.5798553  16.7151673  78.4641313  45.1328553  16.0141673  77.4231313
  44.5108553  16.2401673  77.8441313  35.7598553  14.3341673  78.7411313
  36.4158553  13.7591673  78.7561313  36.1488553  15.0831673  78.5201313
  35.9148553  14.3591673  78.7111313  51.4928553   3.4281673  80.0031313
  51.1468553   4.1061673  80.4291313  50.8568553   2.8301673  80.0191313
  51.3478553   3.4401673  80.0681313  46.8048553  16.1981673  86.1071313
  47.5488553  16.6541673  86.0971313  46.6838553  15.9841673  85.2701313
  46.8968553  16.2341673  85.9821313  36.5778553  12.8211673  82.2411313
  37.0008553  12.4651673  81.5671313  36.9018553  12.3991673  82.9331313
  36.6878553  12.7061673  82.2441313  39.8088553  15.6731673  81.5371313
  40.6528553  15.7771673  81.3421313  39.5118553  16.4911673  81.6051313
  39.8898553  15.8091673  81.5181313  43.6158553   5.0701673  79.6241313
  43.9028553   4.8381673  78.8341313  44.3478553   5.1491673  80.0931313
  43.7658553   5.0471673  79.5771313  44.3378553   5.4091673  74.7451313
  44.6188553   6.1971673  74.9941313  43.5618553   5.5741673  74.3821313
  44.2648553   5.5501673  74.7281313  48.3788553  17.3831673  76.2121313
  49.0438553  17.2351673  75.6671313  48.7388553  17.3001673  77.0021313
  48.5308553  17.3491673  76.2481313  38.8068553  16.8921673  87.2771313
  39.0988553  16.8251673  88.0971313  38.1808553  16.2871673  87.2321313
  38.7578553  16.7931673  87.3921313  43.1968553  13.5801673  74.5611313
  43.0158553  14.1251673  75.2181313  43.9628553  13.8701673  74.2601313
  43.2828553  13.7041673  74.6141313  34.6578553   2.6441673  78.1841313
  34.5438553   1.7801673  78.2151313  34.1828553   2.9381673  78.8541313
  34.5708553   2.5601673  78.2871313  36.7998553  15.0541673  86.3991313
  36.1018553  14.5461673  86.5251313  37.0598553  14.8491673  85.5911313
  36.7348553  14.9491673  86.2981313  43.9618553   3.8521673  76.9291313
  43.4538553   3.1901673  76.6751313  44.0138553   4.3561673  76.2191313
  43.8948553   3.8291673  76.7871313  44.5108553  16.5471673  87.3091313
  45.2788553  16.4671673  86.9031313  43.9278553  16.4261673  86.6711313
  44.5378553  16.5171673  87.1551313  50.7878553  17.1501673  80.2101313
  50.3328553  17.8671673  80.4111313  50.1738553  16.5791673  79.9681313
  50.6298553  17.1721673  80.2041313  42.5598553   3.1601673  81.3421313
  42.6338553   3.7281673  80.6841313  42.6808553   3.6521673  82.0521313
  42.5878553   3.3171673  81.3501313  47.7848553  12.9951673  79.7541313
  48.4858553  12.5131673  79.9431313  47.1248553  12.4261673  79.7991313
  47.7908553  12.8401673  79.7881313  40.1238553   9.4161673  83.7151313
  40.2958553   9.2061673  84.5441313  39.4688553   8.8821673  83.4991313
  40.0528553   9.3061673  83.8061313  46.3518553   3.3301673  87.2301313
  46.2568553   3.6491673  88.0361313  45.7588553   2.6911673  87.1921313
  46.2498553   3.2821673  87.3441313  40.8738553   9.3541673  86.3051313
  40.9268553  10.2011673  86.5071313  40.5888553   8.9841673  87.0421313
  40.8398553   9.4241673  86.4431313  47.0508553  10.0491673  85.4351313
  46.5368553   9.6371673  86.0061313  46.9248553  10.8931673  85.6161313
  46.9568553  10.1131673  85.5461313  37.6158553   2.7931673  81.3441313
  37.8878553   2.3631673  80.6361313  37.4398553   2.1571673  81.9151313
  37.6298553   2.6361673  81.3241313  50.3038553  10.4881673  75.5621313
  50.4228553  10.2011673  76.3771313  51.1108553  10.5091673  75.2321313
  50.4398553  10.4491673  75.6341313  37.4398553  10.2201673  80.8931313
  38.2908553  10.1401673  80.7201313  37.0828553   9.5381673  80.4811313
  37.5128553  10.1071673  80.8061313  36.2068553  16.9451673  82.1301313
  35.5338553  16.4471673  81.8851313  36.6098553  17.1301673  81.3791313
  36.1668553  16.8991673  81.9831313  35.7568553   3.8951673  84.4261313
  36.5998553   4.1151673  84.3831313  35.3678553   4.4681673  83.8951313
  35.8238553   4.0121673  84.3411313  48.1988553   7.0251673  75.1471313
  47.9788553   7.7561673  74.7251313  47.7508553   7.0761673  75.8941313
  48.0998553   7.1401673  75.1951313  39.8078553  10.2271673  79.1281313
  40.5208553  10.7221673  79.2181313  40.0298553   9.6601673  78.5021313
  39.9458553  10.2161673  79.0491313  33.9638553  11.8701673  82.4481313
  33.2968553  12.3581673  82.7241313  34.6438553  12.4151673  82.4771313
  33.9658553  12.0221673  82.4931313  52.7088553   6.2641673  87.1561313
  52.9238553   5.4641673  86.8801313  51.8588553   6.3241673  86.9671313
  52.6148553   6.1551673  87.0871313  34.0298553   8.5541673  77.5511313
  33.8448553   7.7151673  77.7031313  34.6888553   8.5181673  76.9811313
  34.0998553   8.4251673  77.4891313  44.3308553  13.9301673  81.4551313
  43.8078553  14.5641673  81.1621313  44.6408553  13.5661673  80.7261313
  44.2988553  13.9701673  81.3041313  34.2018553  12.7181673  77.1261313
  34.7538553  13.2871673  77.4901313  33.9698553  12.2031673  77.7911313
  34.2488553  12.7261673  77.2781313  38.4058553  11.7181673  84.2151313
  38.8728553  12.0071673  84.8931313  38.9778553  11.2401673  83.7611313
  38.5598553  11.6901673  84.2481313  46.8418553   3.7321673  81.9521313
  47.1858553   3.8841673  82.7391313  46.3888553   2.9941673  82.0651313
  46.8258553   3.6451673  82.0851313  34.0318553  11.1671673  74.7541313
  34.7878553  10.7351673  74.8121313  34.0468553  11.6991673  75.4451313
  34.1458553  11.1821673  74.8651313  34.9718553   9.3881673  82.7591313
  35.4028553   9.2591673  82.0121313  34.7668553  10.2361673  82.7331313
  35.0048553   9.4941673  82.6451313  41.3178553   2.9521673  76.4091313
  41.3158553   2.8351673  75.5441313  41.1368553   3.8001673  76.5011313
  41.2908553   3.0601673  76.2951313  50.3718553  15.3791673  87.9061313
  49.7008553  15.8931673  88.1241313  50.4348553  15.4791673  87.0421313
  50.2818553  15.4701673  87.8111313  39.0558553  12.9041673  81.0411313
  39.1818553  13.7471673  81.2281313  39.7238553  12.5051673  81.4371313
  39.1738553  12.9701673  81.1271313  37.6708553   5.7841673  76.0431313
  37.5428553   5.3361673  76.7811313  37.0888553   5.4421673  75.4911313
  37.5658553   5.6671673  76.0711313  37.8378553   7.6141673  82.6421313
  37.0568553   7.5551673  82.2591313  37.9098553   6.8621673  83.0791313
  37.7328553   7.4951673  82.6501313  38.2678553   7.3511673  86.1101313
  38.2928553   6.6761673  85.5591313  37.6218553   7.8471673  85.7981313
  38.1768553   7.3241673  85.9831313  48.1628553   5.0641673  84.5061313
  47.5008553   5.3921673  84.9691313  48.3498553   5.6981673  83.9371313
  48.0928553   5.2061673  84.4901313  42.3678553  16.1281673  85.5021313
  42.0908553  15.4871673  84.9791313  42.1598553  16.8541673  85.0641313
  42.2968553  16.1411673  85.3601313  46.3558553   3.0331673  78.0171313
  46.8458553   3.7501673  77.9401313  45.5658553   3.2941673  77.7541313
  46.3118553   3.1771673  77.9671313  42.9378553   4.5031673  83.7421313
  43.4178553   5.2021673  83.9501313  43.3108553   3.8561673  84.1931313
  43.0638553   4.5111673  83.8391313  45.1268553   7.6721673  76.0161313
  45.1188553   8.3941673  75.5261313  44.4878553   7.8071673  76.5931313
  45.0318553   7.7991673  76.0291313  50.0988553  11.5421673  79.9971313
  50.4548553  11.1921673  80.7121313  50.0908553  10.8811673  79.4271313
  50.1508553  11.3921673  80.0181313  46.1438553  14.6081673  83.8411313
  45.5408553  14.3121673  83.2841313  46.6888553  15.0601673  83.3321313
  46.1348553  14.6311673  83.6831313  46.1568553  11.4591673  83.2411313
  45.3598553  11.6831673  83.5151313  46.4148553  10.8651673  83.8261313
  46.0768553  11.4041673  83.3681313  40.0488553  16.2711673  77.6891313
  39.9018553  15.4951673  78.0601313  40.7378553  16.1241673  77.1741313
  40.1288553  16.1341673  77.6681313  42.3408553  15.7871673  76.0911313
  42.9628553  15.9501673  76.6811313  42.3768553  16.4781673  75.5591313
  42.4378553  15.9131673  76.1001313  49.4168553   9.4571673  88.0871313
  49.4718553   9.5821673  87.2251313  50.1698553   9.7771673  88.3891313
  49.5358553   9.5221673  88.0041313  36.8418553   8.3211673  76.9201313
  37.1658553   7.5421673  76.6981313  37.4878553   8.6891673  77.3751313
  36.9848553   8.2601673  76.9541313  45.1478553   9.2631673  87.6871313
  44.9928553   9.8731673  88.2911313  45.6818553   8.7051673  88.0931313
  45.2038553   9.2711673  87.8361313  43.5318553   7.6631673  78.3451313
  43.5908553   8.3131673  78.9241313  43.3428553   6.9671673  78.8361313
  43.5128553   7.6561673  78.5031313  48.7578553  11.9921673  84.2141313
  48.2788553  12.2901673  83.5481313  48.4018553  11.2161673  84.3921313
  48.6348553  11.9211673  84.1421313  38.0278553   2.1801673  74.8571313
  37.5168553   2.2331673  74.1511313  38.8118553   2.4201673  74.5611313
  38.0678553   2.2231673  74.7091313  42.7548553   9.7101673  82.7761313
  41.9078553   9.5161673  82.8571313  43.0788553   9.5451673  83.5691313
  42.6768553   9.6571673  82.9051313  39.5068553  16.4401673  73.6621313
  39.9458553  15.7431673  73.9501313  39.7138553  17.0641673  74.2351313
  39.6028553  16.4291673  73.7891313  36.6028553   9.4031673  85.0921313
  37.3248553   9.8911673  85.0551313  36.3328553   9.3731673  84.2631313
  36.6698553   9.4711673  84.9641313  39.8328553   4.5741673  81.8271313
  40.6788553   4.3841673  81.9251313  39.4628553   3.7971673  81.6891313
  39.9028553   4.4311673  81.8211313  52.4498553  16.1581673  76.1541313
  53.1438553  15.6911673  75.9061313  51.9108553  15.5601673  76.4911313
  52.4728553  16.0001673  76.1671313  34.6538553   5.9121673  78.4821313
  35.1428553   5.6201673  79.1431313  34.7828553   5.3191673  77.8551313
  34.7448553   5.7811673  78.4871313  49.6888553   8.9341673  85.3331313
  49.6818553   8.1581673  85.7311313  48.8478553   9.1681673  85.3261313
  49.5638553   8.8541673  85.3911313  39.1788553   7.3461673  73.9681313
  38.5688553   6.9411673  74.4421313  38.7928553   7.4641673  73.1951313
  39.0318553   7.3031673  73.9241313  50.9448553   9.0051673  82.7701313
  50.6588553   9.4061673  83.4901313  51.8048553   8.9431673  82.8971313
  51.0298553   9.0551673  82.8951313  40.6338553   5.8071673  76.6781313
  40.9058553   6.6331673  76.7451313  39.7708553   5.8821673  76.5821313
  40.5468553   5.9401673  76.6731313  34.1138553   1.7771673  83.2141313
  34.1578553   2.1211673  82.4131313  34.8688553   2.0141673  83.5811313
  34.2318553   1.8631673  83.1501313  52.0758553  14.6381673  83.2991313
  52.3658553  14.8951673  82.5181313  52.7708553  14.7341673  83.8181313
  52.2218553  14.6901673  83.2601313  48.6808553  13.2411673  75.2811313
  49.0148553  12.4351673  75.3161313  47.9258553  13.1691673  75.7111313
  48.6188553  13.1111673  75.3501313  49.1628553   5.0751673  80.9401313
  48.4178553   4.7521673  81.2581313  49.1648553   5.9011673  81.2201313
  49.0528553   5.1491673  81.0281313  51.6028553  11.0351673  88.6921313
  52.2308553  10.4861673  88.4361313  51.5418553  11.6001673  88.0301313
  51.6868553  11.0381673  88.5561313  46.0548553  11.1161673  74.6841313
  46.7388553  10.6021673  74.5151313  45.6378553  11.1621673  73.9191313
  46.0938553  11.0471673  74.5461313  40.7368553  12.2661673  85.9881313
  40.4388553  12.8581673  86.5551313  40.7918553  12.7081673  85.2391313
  40.7008553  12.4191673  85.9611313  43.2528553   8.6891673  85.4791313
  43.7288553   9.0631673  86.1071313  42.4298553   8.8231673  85.7381313
  43.2018553   8.7641673  85.6101313  39.9628553   4.2921673  88.2201313
  40.1238553   3.5481673  88.6471313  39.9178553   4.0431673  87.3851313
  39.9798553   4.1451673  88.1601313  42.5168553  16.0821673  80.7071313
  43.0628553  16.7611673  80.7611313  42.1668553  16.1641673  79.9121313
  42.5458553  16.1951673  80.5971313  40.6998553  14.3101673  84.0961313
  40.0758553  14.8921673  83.9141313  40.9478553  14.0241673  83.3101313
  40.6438553  14.3541673  83.9531313  50.7808553   5.6401673  74.9281313
  51.1588553   6.3171673  74.5281313  49.9388553   5.8641673  74.9591313
  50.7118553   5.7731673  74.8731313  42.2938553   9.0861673  74.0111313
  41.4888553   8.9091673  73.7261313  42.2608553   9.9371673  74.2031313
  42.1698553   9.1851673  73.9981313  38.2238553   5.1531673  84.1611313
  38.6638553   5.0501673  83.4151313  38.7688553   4.8401673  84.7661313
  38.3688553   5.0921673  84.1401313  45.9278553   5.7921673  86.0511313
  46.2298553   6.2121673  86.7541313  45.9638553   4.9521673  86.2831313
  45.9778553   5.7301673  86.1891313  48.4758553   5.2391673  78.3031313
  48.6828553   5.0381673  79.1271313  49.2318553   5.5071673  77.9611313
  48.6178553   5.2491673  78.3741313  49.9408553   9.2661673  78.1571313
  50.4168553   8.5371673  78.1091313  49.1198553   8.9801673  78.0811313
  49.8898553   9.1161673  78.1381313  39.2418553  17.3851673  84.3131313
  39.2528553  17.4441673  85.1831313  38.8168553  16.6381673  84.1631313
  39.1808553  17.2831673  84.4191313  37.3998553   3.2801673  77.4681313
  37.5258553   2.9511673  76.6701313  36.5878553   3.0311673  77.6671313
  37.2988553   3.1951673  77.3801313  46.1568553  10.4331673  80.5121313
  46.2328553  10.7741673  81.3111313  46.3258553   9.5861673  80.6331313
  46.1928553  10.3581673  80.6481313  43.6788553   9.7071673  80.0771313
  43.3808553   9.3921673  80.8341313  44.3738553  10.1801673  80.3121313
  43.7378553   9.7301673  80.2241313  43.9008553  13.8251673  88.1041313
  44.5878553  13.7111673  88.6291313  44.0348553  14.6161673  87.7601313
  44.0218553  13.9251673  88.1311313  46.5898553   7.0991673  88.4911313
  46.3348553   6.3801673  88.9131313  47.4108553   7.2151673  88.7611313
  46.6738553   7.0101673  88.5931313  47.6078553  16.6631673  82.6071313
  47.1568553  17.3061673  82.9861313  48.3158553  16.5841673  83.1121313
  47.6458553  16.7461673  82.7381313  44.3088553  11.7531673  85.5371313
  43.6148553  12.1551673  85.8801313  44.9858553  12.1861673  85.8761313
  44.3058553  11.8761673  85.6381313  37.3768553   5.2911673  87.8841313
  37.7518553   5.9101673  87.3971313  38.0508553   4.8171673  88.1691313
  37.5318553   5.3131673  87.8541313  35.1518553   3.7391673  87.1591313
  35.2288553   3.5701673  86.3061313  35.8978553   4.1451673  87.3561313
  35.2728553   3.7741673  87.0621313  50.7108553   6.3791673  77.5991313
  50.8138553   6.3211673  76.7351313  51.4518553   6.0471673  77.9171313
  50.8358553   6.3221673  77.5181313  44.6308553  13.3441673  78.7061313
  44.4258553  14.1771673  78.5471313  43.8558553  12.9621673  78.8281313
  44.4858553  13.4111673  78.7011313  49.8128553   6.5251673  86.9551313
  49.8108553   5.6621673  87.0791313  49.8798553   6.8491673  87.7621313
  49.8228553   6.4451673  87.0921313  34.5488553   8.9651673  87.3831313
  34.8688553   9.1841673  86.6021313  34.4488553   8.1001673  87.3281313
  34.5808553   8.8701673  87.2601313  36.0048553   4.9011673  74.0011313
  35.3328553   4.9151673  74.5571313  36.0998553   4.0531673  73.8171313
  35.9198553   4.7781673  74.0561313  39.9928553  13.6061673  75.1151313
  40.4338553  13.6861673  75.8631313  39.1878553  13.3901673  75.3731313
  39.9388553  13.5861673  75.2641313  48.2838553   2.0311673  84.3911313
  49.1388553   2.1301673  84.5361313  47.9148553   2.5841673  84.9561313
  48.3558553   2.1281673  84.4961313  39.3118553   8.2571673  88.7681313
  38.9158553   9.0311673  88.8431313  38.9058553   7.8841673  88.0921313
  39.1938553   8.3161673  88.6791313  48.5878553   7.3111673  82.8821313
  49.2538553   7.8521673  83.0421313  48.2428553   7.6221673  82.1431313
  48.6348553   7.4371673  82.7971313  48.9008553  15.3771673  78.6891313
  48.7268553  14.7231673  79.2391313  49.6138553  15.1061673  78.2661313
  48.9808553  15.2401673  78.7081313  37.3218553  12.6761673  75.7161313
  37.0778553  12.3691673  76.4961313  37.2888553  11.9731673  75.2001313
  37.2808553  12.5271673  75.7551313  40.1408553  10.9211673  74.4591313
  39.3228553  10.6531673  74.5991313  40.1128553  11.7731673  74.6441313
  40.0158553  11.0081673  74.5071313  46.5758553  12.8301673  86.3801313
  46.7818553  13.1311673  87.1721313  46.5148553  13.5521673  85.8951313
  46.5968553  12.9811673  86.4251313  51.3878553  11.4691673  85.8381313
  51.3558553  10.6071673  85.7031313  50.6948553  11.7711673  85.4041313
  51.2808553  11.3861673  85.7541313  49.4928553  14.7291673  84.6351313
  50.0198553  14.6461673  83.9441313  49.1018553  13.9511673  84.6891313
  49.5128553  14.6021673  84.5411313  45.3658553   5.9811673  81.3361313
  45.9168553   5.3741673  81.6361313  44.9408553   6.2441673  82.0511313
  45.3848553   5.9301673  81.4851313  35.6138553   4.6311673  80.8221313
  35.2458553   4.9331673  81.5531313  36.1478553   4.0021673  81.1061313
  35.6378553   4.5831673  80.9721313  35.3018553  13.0391673  88.3331313
  34.7278553  13.4551673  88.8421313  36.0348553  13.5041673  88.4281313
  35.3258553  13.1691673  88.4221313  47.3358553   7.8121673  77.8981313
  47.4038553   6.9621673  78.0791313  46.5128553   7.8981673  77.6201313
  47.2238553   7.6991673  77.8841313  37.0878553  16.3061673  77.1081313
  36.9428553  16.4621673  76.2621313  37.9538553  16.3851673  77.1861313
  37.1948553  16.3411673  76.9951313  41.2548553   8.7031673  76.8361313
  41.3548553   8.8421673  75.9811313  42.0728553   8.6431673  77.1321313
  41.3898553   8.7141673  76.7531313  50.4148553  16.7671673  74.3161313
  51.0518553  16.6331673  74.8971313  50.0738553  15.9731673  74.1991313
  50.4588553  16.6301673  74.3841313  46.4898553  13.0321673  76.6381313
  46.2388553  12.9041673  77.4641313  46.1728553  12.3371673  76.2171313
  46.4058553  12.9111673  76.6981313  51.1338553   4.6901673  84.7581313
  50.3008553   4.9401673  84.6861313  51.0778553   3.8501673  84.9871313
  51.0028553   4.6031673  84.7811313  37.7748553  15.1211673  83.5851313
  37.6958553  14.3111673  83.2691313  37.3308553  15.6081673  83.0131313
  37.6978553  15.0731673  83.4541313  43.3758553  11.2401673  76.0681313
  44.0928553  10.8931673  75.7121313  43.3418553  12.0401673  75.7201313
  43.4768553  11.3071673  75.9641313  35.3468553  17.3651673  87.1661313
  35.8398553  17.3091673  87.8841313  35.5348553  16.6321673  86.7311313
  35.4478553  17.2481673  87.2081313  44.5938553   6.7971673  64.9778903
  44.0698553   7.3931673  65.3408903  44.9908553   6.4291673  65.6618903
  44.5748553   6.8311673  65.1328903  34.4628553  10.9371673  60.4338903
  34.0218553  11.0551673  61.1768903  34.1798553  10.1621673  60.1488903
  34.3558553  10.8401673  60.5018903  50.7378553  14.2381673  57.9488903
  51.4388553  13.7191673  57.9448903  50.1508553  13.7931673  57.4798903
  50.7548553  14.0951673  57.8788903  34.2058553   4.7291673  56.9408903
  33.4278553   4.8911673  56.5808903  34.2448553   3.8581673  56.9628903
  34.0968553   4.6241673  56.8908903  37.3448553   9.9921673  55.6128903
  36.9528553   9.6211673  54.9268903  37.2648553   9.3941673  56.2418903
  37.2748553   9.8491673  55.6038903  47.2648553   7.8641673  61.6538903
  47.3448553   7.8681673  60.7848903  46.6808553   7.2321673  61.8028903
  47.1898553   7.7711673  61.5478903  36.9718553  11.6331673  59.5128903
  37.5798553  11.4631673  60.1158903  36.2208553  11.4931673  59.9338903
  36.9508553  11.5871673  59.6638903  35.8628553  14.7241673  55.5898903
  36.3298553  14.8081673  54.8578903  36.3178553  14.1461673  56.0588903
  35.9988553  14.6511673  55.5508903  34.4028553  13.6721673  66.6888903
  34.5318553  13.3921673  67.5048903  33.7928553  13.1311673  66.3798903
  34.3318553  13.5511673  66.7638903  40.9768553  11.1971673  71.7558903
  40.7408553  11.1941673  72.5958903  40.2288553  11.0491673  71.3318903
  40.8308553  11.1741673  71.8168903  35.8488553   8.1931673  60.8908903
  35.3868553   7.8011673  60.2638903  36.5488553   7.6801673  60.9828903
  35.8838553   8.0601673  60.8118903  40.3568553   3.8031673  66.2378903
  41.0348553   3.8211673  65.6888903  40.3118553   2.9671673  66.4828903
  40.4498553   3.6821673  66.1928903  40.9588553  14.3891673  69.0188903
  41.0968553  15.1491673  68.6118903  41.7498553  14.0241673  69.0458903
  41.0958553  14.4481673  68.9628903  37.8498553   6.2931673  60.9138903
  38.6668553   6.1061673  61.1568903  37.3728553   5.6791673  61.3098903
  37.8998553   6.1751673  61.0088903  42.0538553  12.2741673  63.5238903
  42.4018553  11.4751673  63.5538903  42.7188553  12.7781673  63.2688903
  42.2038553  12.2301673  63.4908903  42.1108553  11.7231673  59.7348903
  42.4418553  11.0791673  60.2208903  42.3508553  11.5121673  58.9238903
  42.1948553  11.5971673  59.6868903  44.0788553   5.8541673  71.0738903
  43.2308553   5.7551673  70.8958903  44.1078553   6.5991673  71.5278903
  43.9578553   5.9501673  71.1148903  46.0988553   3.4551673  54.7018903
  45.6488553   4.1361673  55.0088903  46.2128553   2.9511673  55.4048903
  46.0498553   3.4811673  54.8508903  34.3048553   5.9541673  63.9038903
  34.0488553   6.7851673  63.8288903  33.6408553   5.5711673  64.3208903
  34.1688553   6.0201673  63.9548903  34.2148553  15.6641673  61.8038903
  33.6228553  16.2221673  61.4908903  34.6408553  15.3951673  61.0918903
  34.1908553  15.7061673  61.6528903  40.0548553  13.5081673  59.2838903
  39.4758553  13.2331673  59.8758903  40.6788553  12.8991673  59.3088903
  40.0618553  13.3781673  59.3748903  46.1978553  15.7961673  56.8058903
  46.9248553  16.2681673  56.9078903  46.4268553  15.0021673  57.0858903
  46.3398553  15.7491673  56.8628903  44.3658553  16.1881673  58.7958903
  44.5798553  16.7151673  59.4578903  45.1328553  16.0141673  58.4168903
  44.5108553  16.2401673  58.8378903  40.6398553   2.9041673  73.6928903
  40.7568553   2.4501673  72.9568903  40.9278553   3.7021673  73.4898903
  40.6998553   2.9551673  73.5538903  35.7598553  14.3341673  59.7348903
  36.4158553  13.7591673  59.7498903  36.1488553  15.0831673  59.5138903
  35.9148553  14.3591673  59.7048903  51.4928553   3.4281673  60.9968903
  51.1468553   4.1061673  61.4228903  50.8568553   2.8301673  61.0128903
  51.3478553   3.4401673  61.0618903  46.8048553  16.1981673  67.1008903
  47.5488553  16.6541673  67.0908903  46.6838553  15.9841673  66.2638903
  46.8968553  16.2341673  66.9758903  36.3728553   2.5011673  72.6768903
  35.5948553   2.1111673  72.6048903  36.8638553   2.0891673  72.0858903
  36.3298553   2.3821673  72.5788903  36.5778553  12.8211673  63.2348903
  37.0008553  12.4651673  62.5608903  36.9018553  12.3991673  63.9268903
  36.6878553  12.7061673  63.2378903  39.8088553  15.6731673  62.5308903
  40.6528553  15.7771673  62.3358903  39.5118553  16.4911673  62.5988903
  39.8898553  15.8091673  62.5118903  43.6158553   5.0701673  60.6178903
  43.9028553   4.8381673  59.8278903  44.3478553   5.1491673  61.0868903
  43.7658553   5.0471673  60.5708903  44.3378553   5.4091673  55.7388903
  44.6188553   6.1971673  55.9878903  43.5618553   5.5741673  55.3758903
  44.2648553   5.5501673  55.7218903  48.3788553  17.3831673  57.2058903
  49.0438553  17.2351673  56.6608903  48.7388553  17.3001673  57.9958903
  48.5308553  17.3491673  57.2418903  38.8068553  16.8921673  68.2708903
  39.0988553  16.8251673  69.0908903  38.1808553  16.2871673  68.2258903
  38.7578553  16.7931673  68.3858903  33.7208553   3.0491673  70.2628903
  33.7168553   3.6361673  70.9088903  34.3148553   3.3611673  69.7058903
  33.8078553   3.1821673  70.2758903  46.0588553  13.3831673  70.8048903
  46.0248553  13.7651673  71.5888903  46.9128553  13.3411673  70.6338903
  46.1798553  13.4331673  70.8958903  43.1968553  13.5801673  55.5548903
  43.0158553  14.1251673  56.2118903  43.9628553  13.8701673  55.2538903
  43.2828553  13.7041673  55.6078903  34.6578553   2.6441673  59.1778903
  34.5438553   1.7801673  59.2088903  34.1828553   2.9381673  59.8478903
  34.5708553   2.5601673  59.2808903  36.7998553  15.0541673  67.3928903
  36.1018553  14.5461673  67.5188903  37.0598553  14.8491673  66.5848903
  36.7348553  14.9491673  67.2918903  43.9618553   3.8521673  57.9228903
  43.4538553   3.1901673  57.6688903  44.0138553   4.3561673  57.2128903
  43.8948553   3.8291673  57.7808903  44.5108553  16.5471673  68.3028903
  45.2788553  16.4671673  67.8968903  43.9278553  16.4261673  67.6648903
  44.5378553  16.5171673  68.1488903  50.7878553  17.1501673  61.2038903
  50.3328553  17.8671673  61.4048903  50.1738553  16.5791673  60.9618903
  50.6298553  17.1721673  61.1978903  42.5598553   3.1601673  62.3358903
  42.6338553   3.7281673  61.6778903  42.6808553   3.6521673  63.0458903
  42.5878553   3.3171673  62.3438903  47.7848553  12.9951673  60.7478903
  48.4858553  12.5131673  60.9368903  47.1248553  12.4261673  60.7928903
  47.7908553  12.8401673  60.7818903  38.1608553  13.9051673  69.9598903
  39.0018553  13.9681673  69.7378903  38.1238553  14.3021673  70.7358903
  38.2798553  13.9731673  70.0418903  40.1238553   9.4161673  64.7088903
  40.2958553   9.2061673  65.5378903  39.4688553   8.8821673  64.4928903
  40.0528553   9.3061673  64.7998903  46.3518553   3.3301673  68.2238903
  46.2568553   3.6491673  69.0298903  45.7588553   2.6911673  68.1858903
  46.2498553   3.2821673  68.3378903  40.8738553   9.3541673  67.2988903
  40.9268553  10.2011673  67.5008903  40.5888553   8.9841673  68.0358903
  40.8398553   9.4241673  67.4368903  47.0508553  10.0491673  66.4288903
  46.5368553   9.6371673  66.9998903  46.9248553  10.8931673  66.6098903
  46.9568553  10.1131673  66.5398903  33.6948553  13.7251673  73.5098903
  34.4508553  14.0741673  73.7678903  33.8718553  12.8721673  73.4528903
  33.8328553  13.6501673  73.5398903  50.0718553   3.5101673  69.3678903
  50.8438553   3.2851673  69.7048903  49.5968553   3.7271673  70.0678903
  50.1158553   3.5091673  69.5208903  37.6158553   2.7931673  62.3378903
  37.8878553   2.3631673  61.6298903  37.4398553   2.1571673  62.9088903
  37.6298553   2.6361673  62.3178903  50.3038553  10.4881673  56.5558903
  50.4228553  10.2011673  57.3708903  51.1108553  10.5091673  56.2258903
  50.4398553  10.4491673  56.6278903  37.4398553  10.2201673  61.8868903
  38.2908553  10.1401673  61.7138903  37.0828553   9.5381673  61.4748903
  37.5128553  10.1071673  61.7998903  36.2068553  16.9451673  63.1238903
  35.5338553  16.4471673  62.8788903  36.6098553  17.1301673  62.3728903
  36.1668553  16.8991673  62.9768903  35.7568553   3.8951673  65.4198903
  36.5998553   4.1151673  65.3768903  35.3678553   4.4681673  64.8888903
  35.8238553   4.0121673  65.3348903  52.5378553  14.9971673  70.8098903
  51.8558553  15.3071673  70.3628903  52.1688553  14.5391673  71.4548903
  52.3818553  14.9751673  70.8388903  48.1988553   7.0251673  56.1408903
  47.9788553   7.7561673  55.7188903  47.7508553   7.0761673  56.8878903
  48.0998553   7.1401673  56.1888903  39.8078553  10.2271673  60.1218903
  40.5208553  10.7221673  60.2118903  40.0298553   9.6601673  59.4958903
  39.9458553  10.2161673  60.0428903  33.9638553  11.8701673  63.4418903
  33.2968553  12.3581673  63.7178903  34.6438553  12.4151673  63.4708903
  33.9658553  12.0221673  63.4868903  41.6108553   5.5801673  73.5378903
  41.1268553   6.1571673  73.9798903  41.5828553   5.8751673  72.7168903
  41.5348553   5.7091673  73.4818903  52.7088553   6.2641673  68.1498903
  52.9238553   5.4641673  67.8738903  51.8588553   6.3241673  67.9608903
  52.6148553   6.1551673  68.0808903  34.0298553   8.5541673  58.5448903
  33.8448553   7.7151673  58.6968903  34.6888553   8.5181673  57.9748903
  34.0998553   8.4251673  58.4828903  34.2018553  12.7181673  58.1198903
  34.7538553  13.2871673  58.4838903  33.9698553  12.2031673  58.7848903
  34.2488553  12.7261673  58.2718903  38.4058553  11.7181673  65.2088903
  38.8728553  12.0071673  65.8868903  38.9778553  11.2401673  64.7548903
  38.5598553  11.6901673  65.2418903  46.8418553   3.7321673  62.9458903
  47.1858553   3.8841673  63.7328903  46.3888553   2.9941673  63.0588903
  46.8258553   3.6451673  63.0788903  34.0318553  11.1671673  55.7478903
  34.7878553  10.7351673  55.8058903  34.0468553  11.6991673  56.4388903
  34.1458553  11.1821673  55.8588903  34.9718553   9.3881673  63.7528903
  35.4028553   9.2591673  63.0058903  34.7668553  10.2361673  63.7268903
  35.0048553   9.4941673  63.6388903  41.3178553   2.9521673  57.4028903
  41.3158553   2.8351673  56.5378903  41.1368553   3.8001673  57.4948903
  41.2908553   3.0601673  57.2888903  50.3718553  15.3791673  68.8998903
  49.7008553  15.8931673  69.1178903  50.4348553  15.4791673  68.0358903
  50.2818553  15.4701673  68.8048903  39.0558553  12.9041673  62.0348903
  39.1818553  13.7471673  62.2218903  39.7238553  12.5051673  62.4308903
  39.1738553  12.9701673  62.1208903  37.1858553   6.3871673  71.8968903
  36.6498553   5.8811673  72.3648903  37.2058553   5.9971673  71.1168903
  37.1088553   6.2541673  71.8508903  37.6708553   5.7841673  57.0368903
  37.5428553   5.3361673  57.7748903  37.0888553   5.4421673  56.4848903
  37.5658553   5.6671673  57.0648903  37.8378553   7.6141673  63.6358903
  37.0568553   7.5551673  63.2528903  37.9098553   6.8621673  64.0728903
  37.7328553   7.4951673  63.6438903  38.2678553   7.3511673  67.1038903
  38.2928553   6.6761673  66.5528903  37.6218553   7.8471673  66.7918903
  38.1768553   7.3241673  66.9768903  48.1628553   5.0641673  65.4998903
  47.5008553   5.3921673  65.9628903  48.3498553   5.6981673  64.9308903
  48.0928553   5.2061673  65.4838903  42.3678553  16.1281673  66.4958903
  42.0908553  15.4871673  65.9728903  42.1598553  16.8541673  66.0578903
  42.2968553  16.1411673  66.3538903  46.3558553   3.0331673  59.0108903
  46.8458553   3.7501673  58.9338903  45.5658553   3.2941673  58.7478903
  46.3118553   3.1771673  58.9608903  36.0668553   8.7061673  72.6628903
  36.0298553   9.2071673  71.9488903  36.3978553   7.9541673  72.3678903
  36.1098553   8.6681673  72.5138903  47.6698553  10.9111673  70.9208903
  48.1538553  11.6291673  71.0188903  48.0638553  10.4841673  70.2698903
  47.7998553  10.9541673  70.8388903  41.9658553  13.7561673  72.0978903
  42.3198553  13.5781673  72.8748903  41.5298553  13.0271673  71.8988903
  41.9538553  13.6221673  72.1838903  42.9378553   4.5031673  64.7358903
  43.4178553   5.2021673  64.9438903  43.3108553   3.8561673  65.1868903
  43.0638553   4.5111673  64.8328903  45.1268553   7.6721673  57.0098903
  45.1188553   8.3941673  56.5198903  44.4878553   7.8071673  57.5868903
  45.0318553   7.7991673  57.0228903  50.0988553  11.5421673  60.9908903
  50.4548553  11.1921673  61.7058903  50.0908553  10.8811673  60.4208903
  50.1508553  11.3921673  61.0118903  46.1438553  14.6081673  64.8348903
  45.5408553  14.3121673  64.2778903  46.6888553  15.0601673  64.3258903
  46.1348553  14.6311673  64.6768903  46.1568553  11.4591673  64.2348903
  45.3598553  11.6831673  64.5088903  46.4148553  10.8651673  64.8198903
  46.0768553  11.4041673  64.3618903  40.0488553  16.2711673  58.6828903
  39.9018553  15.4951673  59.0538903  40.7378553  16.1241673  58.1678903
  40.1288553  16.1341673  58.6618903  42.3408553  15.7871673  57.0848903
  42.9628553  15.9501673  57.6748903  42.3768553  16.4781673  56.5528903
  42.4378553  15.9131673  57.0938903  49.4168553   9.4571673  69.0808903
  49.4718553   9.5821673  68.2188903  50.1698553   9.7771673  69.3828903
  49.5358553   9.5221673  68.9978903  45.6078553  14.8061673  73.3578903
  45.7718553  15.0891673  74.1668903  45.8708553  15.4671673  72.8528903
  45.6708553  14.9461673  73.4028903  36.8418553   8.3211673  57.9138903
  37.1658553   7.5421673  57.6918903  37.4878553   8.6891673  58.3688903
  36.9848553   8.2601673  57.9478903  45.1478553   9.2631673  68.6808903
  44.9928553   9.8731673  69.2848903  45.6818553   8.7051673  69.0868903
  45.2038553   9.2711673  68.8298903  43.5318553   7.6631673  59.3388903
  43.5908553   8.3131673  59.9178903  43.3428553   6.9671673  59.8298903
  43.5128553   7.6561673  59.4968903  48.7578553  11.9921673  65.2078903
  48.2788553  12.2901673  64.5418903  48.4018553  11.2161673  65.3858903
  48.6348553  11.9211673  65.1358903  38.0278553   2.1801673  55.8508903
  37.5168553   2.2331673  55.1448903  38.8118553   2.4201673  55.5548903
  38.0678553   2.2231673  55.7028903  42.7548553   9.7101673  63.7698903
  41.9078553   9.5161673  63.8508903  43.0788553   9.5451673  64.5628903
  42.6768553   9.6571673  63.8988903  39.5068553  16.4401673  54.6558903
  39.9458553  15.7431673  54.9438903  39.7138553  17.0641673  55.2288903
  39.6028553  16.4291673  54.7828903  36.6028553   9.4031673  66.0858903
  37.3248553   9.8911673  66.0488903  36.3328553   9.3731673  65.2568903
  36.6698553   9.4711673  65.9578903  39.8328553   4.5741673  62.8208903
  40.6788553   4.3841673  62.9188903  39.4628553   3.7971673  62.6828903
  39.9028553   4.4311673  62.8148903  52.4498553  16.1581673  57.1478903
  53.1438553  15.6911673  56.8998903  51.9108553  15.5601673  57.4848903
  52.4728553  16.0001673  57.1608903  34.6538553   5.9121673  59.4758903
  35.1428553   5.6201673  60.1368903  34.7828553   5.3191673  58.8488903
  34.7448553   5.7811673  59.4808903  49.6888553   8.9341673  66.3268903
  49.6818553   8.1581673  66.7248903  48.8478553   9.1681673  66.3198903
  49.5638553   8.8541673  66.3848903  39.1788553   7.3461673  54.9618903
  38.5688553   6.9411673  55.4358903  38.7928553   7.4641673  54.1888903
  39.0318553   7.3031673  54.9178903  35.9978553  10.4551673  70.3638903
  35.5768553   9.9371673  69.8028903  35.6458553  11.2411673  70.2208903
  35.8838553  10.4951673  70.2598903  50.9448553   9.0051673  63.7638903
  50.6588553   9.4061673  64.4838903  51.8048553   8.9431673  63.8908903
  51.0298553   9.0551673  63.8888903  40.6338553   5.8071673  57.6718903
  40.9058553   6.6331673  57.7388903  39.7708553   5.8821673  57.5758903
  40.5468553   5.9401673  57.6668903  48.6068553   2.9291673  72.3038903
  48.0818553   3.3881673  72.8278903  48.2458553   2.1341673  72.2978903
  48.4758553   2.8791673  72.3798903  34.1138553   1.7771673  64.2078903
  34.1578553   2.1211673  63.4068903  34.8688553   2.0141673  64.5748903
  34.2318553   1.8631673  64.1438903  52.0758553  14.6381673  64.2928903
  52.3658553  14.8951673  63.5118903  52.7708553  14.7341673  64.8118903
  52.2218553  14.6901673  64.2538903  47.0988553   6.4981673  72.3798903
  47.1718553   6.6021673  73.2428903  46.4648553   7.0561673  72.1588903
  47.0158553   6.5961673  72.4748903  49.3668553   6.8171673  70.7448903
  49.6858553   7.6031673  70.9478903  48.9968553   6.5471673  71.4878903
  49.3598553   6.8931673  70.8848903  48.6808553  13.2411673  56.2748903
  49.0148553  12.4351673  56.3098903  47.9258553  13.1691673  56.7048903
  48.6188553  13.1111673  56.3438903  49.1628553   5.0751673  61.9338903
  48.4178553   4.7521673  62.2518903  49.1648553   5.9011673  62.2138903
  49.0528553   5.1491673  62.0218903  52.0648553   7.3591673  73.4798903
  52.0128553   7.0181673  72.6788903  52.8018553   7.8261673  73.4578903
  52.1658553   7.3781673  73.3578903  51.6028553  11.0351673  69.6858903
  52.2308553  10.4861673  69.4298903  51.5418553  11.6001673  69.0238903
  51.6868553  11.0381673  69.5498903  46.0548553  11.1161673  55.6778903
  46.7388553  10.6021673  55.5088903  45.6378553  11.1621673  54.9128903
  46.0938553  11.0471673  55.5398903  40.7368553  12.2661673  66.9818903
  40.4388553  12.8581673  67.5488903  40.7918553  12.7081673  66.2328903
  40.7008553  12.4191673  66.9548903  38.7158553  11.2161673  70.3798903
  37.9098553  10.9261673  70.5468903  38.6268553  12.0841673  70.3858903
  38.5838553  11.3011673  70.4048903  43.2528553   8.6891673  66.4728903
  43.7288553   9.0631673  67.1008903  42.4298553   8.8231673  66.7318903
  43.2018553   8.7641673  66.6038903  39.9628553   4.2921673  69.2138903
  40.1238553   3.5481673  69.6408903  39.9178553   4.0431673  68.3788903
  39.9798553   4.1451673  69.1538903  42.5168553  16.0821673  61.7008903
  43.0628553  16.7611673  61.7548903  42.1668553  16.1641673  60.9058903
  42.5458553  16.1951673  61.5908903  40.6998553  14.3101673  65.0898903
  40.0758553  14.8921673  64.9078903  40.9478553  14.0241673  64.3038903
  40.6438553  14.3541673  64.9468903  45.0088553  10.9441673  72.0788903
  45.7658553  11.2301673  71.7528903  44.4618553  10.9961673  71.4008903
  45.0398553  10.9941673  71.9298903  48.9178553  13.4941673  70.5828903
  49.2638553  13.7641673  71.3368903  49.2118553  14.0761673  70.0028903
  49.0128553  13.6201673  70.6088903  50.7808553   5.6401673  55.9218903
  51.1588553   6.3171673  55.5218903  49.9388553   5.8641673  55.9528903
  50.7118553   5.7731673  55.8668903  42.2938553   9.0861673  55.0048903
  41.4888553   8.9091673  54.7198903  42.2608553   9.9371673  55.1968903
  42.1698553   9.1851673  54.9918903  38.2238553   5.1531673  65.1548903
  38.6638553   5.0501673  64.4088903  38.7688553   4.8401673  65.7598903
  38.3688553   5.0921673  65.1338903  46.2398553   4.2551673  70.7468903
  45.5918553   4.7251673  71.0948903  46.8048553   4.1661673  71.4058903
  46.2278553   4.3111673  70.8958903  45.9278553   5.7921673  67.0448903
  46.2298553   6.2121673  67.7478903  45.9638553   4.9521673  67.2768903
  45.9778553   5.7301673  67.1828903  43.3528553  15.9591673  70.9698903
  43.8308553  15.3591673  70.5538903  43.0018553  15.5161673  71.6348903
  43.3718553  15.8051673  71.0068903  48.4758553   5.2391673  59.2968903
  48.6828553   5.0381673  60.1208903  49.2318553   5.5071673  58.9548903
  48.6178553   5.2491673  59.3678903  49.9408553   9.2661673  59.1508903
  50.4168553   8.5371673  59.1028903  49.1198553   8.9801673  59.0748903
  49.8898553   9.1161673  59.1318903  43.4118553  11.1781673  69.9898903
  42.6168553  11.1141673  70.3408903  43.4828553  12.0251673  69.7948903
  43.3048553  11.2931673  70.0128903  39.2418553  17.3851673  65.3068903
  39.2528553  17.4441673  66.1768903  38.8168553  16.6381673  65.1568903
  39.1808553  17.2831673  65.4128903  37.3998553   3.2801673  58.4618903
  37.5258553   2.9511673  57.6638903  36.5878553   3.0311673  58.6608903
  37.2988553   3.1951673  58.3738903  46.1568553  10.4331673  61.5058903
  46.2328553  10.7741673  62.3048903  46.3258553   9.5861673  61.6268903
  46.1928553  10.3581673  61.6418903  43.6788553   9.7071673  61.0708903
  43.3808553   9.3921673  61.8278903  44.3738553  10.1801673  61.3058903
  43.7378553   9.7301673  61.2178903  43.9008553  13.8251673  69.0978903
  44.5878553  13.7111673  69.6228903  44.0348553  14.6161673  68.7538903
  44.0218553  13.9251673  69.1248903  52.0768553   6.4341673  70.9088903
  51.2218553   6.3121673  71.0348903  52.2298553   6.0391673  70.1458903
  51.9728553   6.3571673  70.8148903  46.5898553   7.0991673  69.4848903
  46.3348553   6.3801673  69.9068903  47.4108553   7.2151673  69.7548903
  46.6738553   7.0101673  69.5868903  36.0058553  16.8831673  70.7488903
  35.3518553  16.3141673  70.8468903  35.6308553  17.6561673  70.8998903
  35.8538553  16.9131673  70.7858903  44.5238553   8.2891673  72.6718903
  44.8468553   8.9751673  72.2398903  43.8198553   8.6121673  73.0738903
  44.4668553   8.4381673  72.6668903  47.6078553  16.6631673  63.6008903
  47.1568553  17.3061673  63.9798903  48.3158553  16.5841673  64.1058903
  47.6458553  16.7461673  63.7318903  44.3088553  11.7531673  66.5308903
  43.6148553  12.1551673  66.8738903  44.9858553  12.1861673  66.8698903
  44.3058553  11.8761673  66.6318903  49.6858553  14.3461673  73.1108903
  50.4618553  13.9561673  73.1938903  49.2168553  14.0101673  73.7658903
  49.7308553  14.2391673  73.2198903  37.3768553   5.2911673  68.8778903
  37.7518553   5.9101673  68.3908903  38.0508553   4.8171673  69.1628903
  37.5318553   5.3131673  68.8478903  35.1518553   3.7391673  68.1528903
  35.2288553   3.5701673  67.2998903  35.8978553   4.1451673  68.3498903
  35.2728553   3.7741673  68.0558903  50.7108553   6.3791673  58.5928903
  50.8138553   6.3211673  57.7288903  51.4518553   6.0471673  58.9108903
  50.8358553   6.3221673  58.5118903  44.6308553  13.3441673  59.6998903
  44.4258553  14.1771673  59.5408903  43.8558553  12.9621673  59.8218903
  44.4858553  13.4111673  59.6948903  49.8128553   6.5251673  67.9488903
  49.8108553   5.6621673  68.0728903  49.8798553   6.8491673  68.7558903
  49.8228553   6.4451673  68.0858903  34.5488553   8.9651673  68.3768903
  34.8688553   9.1841673  67.5958903  34.4488553   8.1001673  68.3218903
  34.5808553   8.8701673  68.2538903  36.0048553   4.9011673  54.9948903
  35.3328553   4.9151673  55.5508903  36.0998553   4.0531673  54.8108903
  35.9198553   4.7781673  55.0498903  39.9928553  13.6061673  56.1088903
  40.4338553  13.6861673  56.8568903  39.1878553  13.3901673  56.3668903
  39.9388553  13.5861673  56.2578903  48.2838553   2.0311673  65.3848903
  49.1388553   2.1301673  65.5298903  47.9148553   2.5841673  65.9498903
  48.3558553   2.1281673  65.4898903  39.3118553   8.2571673  69.7618903
  38.9158553   9.0311673  69.8368903  38.9058553   7.8841673  69.0858903
  39.1938553   8.3161673  69.6728903  48.5878553   7.3111673  63.8758903
  49.2538553   7.8521673  64.0358903  48.2428553   7.6221673  63.1368903
  48.6348553   7.4371673  63.7908903  48.9008553  15.3771673  59.6828903
  48.7268553  14.7231673  60.2328903  49.6138553  15.1061673  59.2598903
  48.9808553  15.2401673  59.7018903  37.3218553  12.6761673  56.7098903
  37.0778553  12.3691673  57.4898903  37.2888553  11.9731673  56.1938903
  37.2808553  12.5271673  56.7488903  40.1408553  10.9211673  55.4528903
  39.3228553  10.6531673  55.5928903  40.1128553  11.7731673  55.6378903
  40.0158553  11.0081673  55.5008903  46.5758553  12.8301673  67.3738903
  46.7818553  13.1311673  68.1658903  46.5148553  13.5521673  66.8888903
  46.5968553  12.9811673  67.4188903  46.1098553  17.0441673  71.6198903
  45.3568553  17.0261673  71.1788903  46.2778553  17.8961673  71.7038903
  46.0238553  17.1671673  71.5668903  41.3468553   6.3111673  70.7898903
  41.0248553   5.7351673  70.2198903  40.9878553   7.0661673  70.5438903
  41.2468553   6.3371673  70.6698903  51.3878553  11.4691673  66.8318903
  51.3558553  10.6071673  66.6968903  50.6948553  11.7711673  66.3978903
  51.2808553  11.3861673  66.7478903  39.7818553  16.6671673  71.0378903
  39.8228553  16.7931673  71.9008903  40.4328553  16.1071673  70.8818903
  39.8838553  16.6031673  71.1428903  49.4928553  14.7291673  65.6288903
  50.0198553  14.6461673  64.9378903  49.1018553  13.9511673  65.6828903
  49.5128553  14.6021673  65.5348903  37.3748553  15.0501673  72.3978903
  37.9698553  15.4811673  72.8698903  37.0108553  15.6741673  71.9088903
  37.4088553  15.2061673  72.3948903  45.3658553   5.9811673  62.3298903
  45.9168553   5.3741673  62.6298903  44.9408553   6.2441673  63.0448903
  45.3848553   5.9301673  62.4788903  35.6138553   4.6311673  61.8158903
  35.2458553   4.9331673  62.5468903  36.1478553   4.0021673  62.0998903
  35.6378553   4.5831673  61.9658903  35.3018553  13.0391673  69.3268903
  34.7278553  13.4551673  69.8358903  36.0348553  13.5041673  69.4218903
  35.3258553  13.1691673  69.4158903  47.3358553   7.8121673  58.8918903
  47.4038553   6.9621673  59.0728903  46.5128553   7.8981673  58.6138903
  47.2238553   7.6991673  58.8778903  37.0878553  16.3061673  58.1018903
  36.9428553  16.4621673  57.2558903  37.9538553  16.3851673  58.1798903
  37.1948553  16.3411673  57.9888903  41.2548553   8.7031673  57.8298903
  41.3548553   8.8421673  56.9748903  42.0728553   8.6431673  58.1258903
  41.3898553   8.7141673  57.7468903  50.4148553  16.7671673  55.3098903
  51.0518553  16.6331673  55.8908903  50.0738553  15.9731673  55.1928903
  50.4588553  16.6301673  55.3778903  50.6098553   9.1851673  72.0428903
  51.2438553   9.0151673  72.6168903  51.0268553   9.5881673  71.3908903
  50.7648553   9.2201673  72.0318903  46.4898553  13.0321673  57.6318903
  46.2388553  12.9041673  58.4578903  46.1728553  12.3371673  57.2108903
  46.4058553  12.9111673  57.6918903  51.2348553   3.7491673  72.7808903
  51.0388553   4.3931673  73.3358903  50.5128553   3.2591673  72.7728903
  51.0998553   3.7721673  72.8618903  51.1338553   4.6901673  65.7518903
  50.3008553   4.9401673  65.6798903  51.0778553   3.8501673  65.9808903
  51.0028553   4.6031673  65.7748903  48.0208553   9.2961673  73.3978903
  48.8918553   9.2601673  73.3618903  47.8018553   9.7161673  72.6658903
  48.1178553   9.3521673  73.2848903  37.7748553  15.1211673  64.5788903
  37.6958553  14.3111673  64.2628903  37.3308553  15.6081673  64.0068903
  37.6978553  15.0731673  64.4478903  43.3758553  11.2401673  57.0618903
  44.0928553  10.8931673  56.7058903  43.3418553  12.0401673  56.7138903
  43.4768553  11.3071673  56.9578903  44.5938553   6.7971673  45.9716493
  44.0698553   7.3931673  46.3346493  44.9908553   6.4291673  46.6556493
  44.5748553   6.8311673  46.1266493  34.4628553  10.9371673  41.4276493
  34.0218553  11.0551673  42.1706493  34.1798553  10.1621673  41.1426493
  34.3558553  10.8401673  41.4956493  50.7378553  14.2381673  38.9426493
  51.4388553  13.7191673  38.9386493  50.1508553  13.7931673  38.4736493
  50.7548553  14.0951673  38.8726493  34.2058553   4.7291673  37.9346493
  33.4278553   4.8911673  37.5746493  34.2448553   3.8581673  37.9566493
  34.0968553   4.6241673  37.8846493  37.3448553   9.9921673  36.6066493
  36.9528553   9.6211673  35.9206493  37.2648553   9.3941673  37.2356493
  37.2748553   9.8491673  36.5976493  47.2648553   7.8641673  42.6476493
  47.3448553   7.8681673  41.7786493  46.6808553   7.2321673  42.7966493
  47.1898553   7.7711673  42.5416493  36.9718553  11.6331673  40.5066493
  37.5798553  11.4631673  41.1096493  36.2208553  11.4931673  40.9276493
  36.9508553  11.5871673  40.6576493  35.8628553  14.7241673  36.5836493
  36.3298553  14.8081673  35.8516493  36.3178553  14.1461673  37.0526493
  35.9988553  14.6511673  36.5446493  34.4028553  13.6721673  47.6826493
  34.5318553  13.3921673  48.4986493  33.7928553  13.1311673  47.3736493
  34.3318553  13.5511673  47.7576493  40.9768553  11.1971673  52.7496493
  40.7408553  11.1941673  53.5896493  40.2288553  11.0491673  52.3256493
  40.8308553  11.1741673  52.8106493  35.8488553   8.1931673  41.8846493
  35.3868553   7.8011673  41.2576493  36.5488553   7.6801673  41.9766493
  35.8838553   8.0601673  41.8056493  40.3568553   3.8031673  47.2316493
  41.0348553   3.8211673  46.6826493  40.3118553   2.9671673  47.4766493
  40.4498553   3.6821673  47.1866493  40.9588553  14.3891673  50.0126493
  41.0968553  15.1491673  49.6056493  41.7498553  14.0241673  50.0396493
  41.0958553  14.4481673  49.9566493  37.8498553   6.2931673  41.9076493
  38.6668553   6.1061673  42.1506493  37.3728553   5.6791673  42.3036493
  37.8998553   6.1751673  42.0026493  42.0538553  12.2741673  44.5176493
  42.4018553  11.4751673  44.5476493  42.7188553  12.7781673  44.2626493
  42.2038553  12.2301673  44.4846493  42.1108553  11.7231673  40.7286493
  42.4418553  11.0791673  41.2146493  42.3508553  11.5121673  39.9176493
  42.1948553  11.5971673  40.6806493  44.0788553   5.8541673  52.0676493
  43.2308553   5.7551673  51.8896493  44.1078553   6.5991673  52.5216493
  43.9578553   5.9501673  52.1086493  46.0988553   3.4551673  35.6956493
  45.6488553   4.1361673  36.0026493  46.2128553   2.9511673  36.3986493
  46.0498553   3.4811673  35.8446493  34.3048553   5.9541673  44.8976493
  34.0488553   6.7851673  44.8226493  33.6408553   5.5711673  45.3146493
  34.1688553   6.0201673  44.9486493  34.2148553  15.6641673  42.7976493
  33.6228553  16.2221673  42.4846493  34.6408553  15.3951673  42.0856493
  34.1908553  15.7061673  42.6466493  40.0548553  13.5081673  40.2776493
  39.4758553  13.2331673  40.8696493  40.6788553  12.8991673  40.3026493
  40.0618553  13.3781673  40.3686493  46.1978553  15.7961673  37.7996493
  46.9248553  16.2681673  37.9016493  46.4268553  15.0021673  38.0796493
  46.3398553  15.7491673  37.8566493  44.3658553  16.1881673  39.7896493
  44.5798553  16.7151673  40.4516493  45.1328553  16.0141673  39.4106493
  44.5108553  16.2401673  39.8316493  40.6398553   2.9041673  54.6866493
  40.7568553   2.4501673  53.9506493  40.9278553   3.7021673  54.4836493
  40.6998553   2.9551673  54.5476493  35.7598553  14.3341673  40.7286493
  36.4158553  13.7591673  40.7436493  36.1488553  15.0831673  40.5076493
  35.9148553  14.3591673  40.6986493  51.4928553   3.4281673  41.9906493
  51.1468553   4.1061673  42.4166493  50.8568553   2.8301673  42.0066493
  51.3478553   3.4401673  42.0556493  46.8048553  16.1981673  48.0946493
  47.5488553  16.6541673  48.0846493  46.6838553  15.9841673  47.2576493
  46.8968553  16.2341673  47.9696493  36.3728553   2.5011673  53.6706493
  35.5948553   2.1111673  53.5986493  36.8638553   2.0891673  53.0796493
  36.3298553   2.3821673  53.5726493  36.5778553  12.8211673  44.2286493
  37.0008553  12.4651673  43.5546493  36.9018553  12.3991673  44.9206493
  36.6878553  12.7061673  44.2316493  39.8088553  15.6731673  43.5246493
  40.6528553  15.7771673  43.3296493  39.5118553  16.4911673  43.5926493
  39.8898553  15.8091673  43.5056493  43.6158553   5.0701673  41.6116493
  43.9028553   4.8381673  40.8216493  44.3478553   5.1491673  42.0806493
  43.7658553   5.0471673  41.5646493  44.3378553   5.4091673  36.7326493
  44.6188553   6.1971673  36.9816493  43.5618553   5.5741673  36.3696493
  44.2648553   5.5501673  36.7156493  48.3788553  17.3831673  38.1996493
  49.0438553  17.2351673  37.6546493  48.7388553  17.3001673  38.9896493
  48.5308553  17.3491673  38.2356493  38.8068553  16.8921673  49.2646493
  39.0988553  16.8251673  50.0846493  38.1808553  16.2871673  49.2196493
  38.7578553  16.7931673  49.3796493  33.7208553   3.0491673  51.2566493
  33.7168553   3.6361673  51.9026493  34.3148553   3.3611673  50.6996493
  33.8078553   3.1821673  51.2696493  46.0588553  13.3831673  51.7986493
  46.0248553  13.7651673  52.5826493  46.9128553  13.3411673  51.6276493
  46.1798553  13.4331673  51.8896493  43.1968553  13.5801673  36.5486493
  43.0158553  14.1251673  37.2056493  43.9628553  13.8701673  36.2476493
  43.2828553  13.7041673  36.6016493  34.6578553   2.6441673  40.1716493
  34.5438553   1.7801673  40.2026493  34.1828553   2.9381673  40.8416493
  34.5708553   2.5601673  40.2746493  36.7998553  15.0541673  48.3866493
  36.1018553  14.5461673  48.5126493  37.0598553  14.8491673  47.5786493
  36.7348553  14.9491673  48.2856493  43.9618553   3.8521673  38.9166493
  43.4538553   3.1901673  38.6626493  44.0138553   4.3561673  38.2066493
  43.8948553   3.8291673  38.7746493  44.5108553  16.5471673  49.2966493
  45.2788553  16.4671673  48.8906493  43.9278553  16.4261673  48.6586493
  44.5378553  16.5171673  49.1426493  50.7878553  17.1501673  42.1976493
  50.3328553  17.8671673  42.3986493  50.1738553  16.5791673  41.9556493
  50.6298553  17.1721673  42.1916493  42.5598553   3.1601673  43.3296493
  42.6338553   3.7281673  42.6716493  42.6808553   3.6521673  44.0396493
  42.5878553   3.3171673  43.3376493  47.7848553  12.9951673  41.7416493
  48.4858553  12.5131673  41.9306493  47.1248553  12.4261673  41.7866493
  47.7908553  12.8401673  41.7756493  38.1608553  13.9051673  50.9536493
  39.0018553  13.9681673  50.7316493  38.1238553  14.3021673  51.7296493
  38.2798553  13.9731673  51.0356493  40.1238553   9.4161673  45.7026493
  40.2958553   9.2061673  46.5316493  39.4688553   8.8821673  45.4866493
  40.0528553   9.3061673  45.7936493  46.3518553   3.3301673  49.2176493
  46.2568553   3.6491673  50.0236493  45.7588553   2.6911673  49.1796493
  46.2498553   3.2821673  49.3316493  40.8738553   9.3541673  48.2926493
  40.9268553  10.2011673  48.4946493  40.5888553   8.9841673  49.0296493
  40.8398553   9.4241673  48.4306493  47.0508553  10.0491673  47.4226493
  46.5368553   9.6371673  47.9936493  46.9248553  10.8931673  47.6036493
  46.9568553  10.1131673  47.5336493  33.6948553  13.7251673  54.5036493
  34.4508553  14.0741673  54.7616493  33.8718553  12.8721673  54.4466493
  33.8328553  13.6501673  54.5336493  50.0718553   3.5101673  50.3616493
  50.8438553   3.2851673  50.6986493  49.5968553   3.7271673  51.0616493
  50.1158553   3.5091673  50.5146493  37.6158553   2.7931673  43.3316493
  37.8878553   2.3631673  42.6236493  37.4398553   2.1571673  43.9026493
  37.6298553   2.6361673  43.3116493  50.3038553  10.4881673  37.5496493
  50.4228553  10.2011673  38.3646493  51.1108553  10.5091673  37.2196493
  50.4398553  10.4491673  37.6216493  37.4398553  10.2201673  42.8806493
  38.2908553  10.1401673  42.7076493  37.0828553   9.5381673  42.4686493
  37.5128553  10.1071673  42.7936493  36.2068553  16.9451673  44.1176493
  35.5338553  16.4471673  43.8726493  36.6098553  17.1301673  43.3666493
  36.1668553  16.8991673  43.9706493  35.7568553   3.8951673  46.4136493
  36.5998553   4.1151673  46.3706493  35.3678553   4.4681673  45.8826493
  35.8238553   4.0121673  46.3286493  52.5378553  14.9971673  51.8036493
  51.8558553  15.3071673  51.3566493  52.1688553  14.5391673  52.4486493
  52.3818553  14.9751673  51.8326493  48.1988553   7.0251673  37.1346493
  47.9788553   7.7561673  36.7126493  47.7508553   7.0761673  37.8816493
  48.0998553   7.1401673  37.1826493  39.8078553  10.2271673  41.1156493
  40.5208553  10.7221673  41.2056493  40.0298553   9.6601673  40.4896493
  39.9458553  10.2161673  41.0366493  33.9638553  11.8701673  44.4356493
  33.2968553  12.3581673  44.7116493  34.6438553  12.4151673  44.4646493
  33.9658553  12.0221673  44.4806493  41.6108553   5.5801673  54.5316493
  41.1268553   6.1571673  54.9736493  41.5828553   5.8751673  53.7106493
  41.5348553   5.7091673  54.4756493  52.7088553   6.2641673  49.1436493
  52.9238553   5.4641673  48.8676493  51.8588553   6.3241673  48.9546493
  52.6148553   6.1551673  49.0746493  34.0298553   8.5541673  39.5386493
  33.8448553   7.7151673  39.6906493  34.6888553   8.5181673  38.9686493
  34.0998553   8.4251673  39.4766493  44.3308553  13.9301673  43.4426493
  43.8078553  14.5641673  43.1496493  44.6408553  13.5661673  42.7136493
  44.2988553  13.9701673  43.2916493  34.2018553  12.7181673  39.1136493
  34.7538553  13.2871673  39.4776493  33.9698553  12.2031673  39.7786493
  34.2488553  12.7261673  39.2656493  38.4058553  11.7181673  46.2026493
  38.8728553  12.0071673  46.8806493  38.9778553  11.2401673  45.7486493
  38.5598553  11.6901673  46.2356493  46.8418553   3.7321673  43.9396493
  47.1858553   3.8841673  44.7266493  46.3888553   2.9941673  44.0526493
  46.8258553   3.6451673  44.0726493  34.0318553  11.1671673  36.7416493
  34.7878553  10.7351673  36.7996493  34.0468553  11.6991673  37.4326493
  34.1458553  11.1821673  36.8526493  34.9718553   9.3881673  44.7466493
  35.4028553   9.2591673  43.9996493  34.7668553  10.2361673  44.7206493
  35.0048553   9.4941673  44.6326493  41.3178553   2.9521673  38.3966493
  41.3158553   2.8351673  37.5316493  41.1368553   3.8001673  38.4886493
  41.2908553   3.0601673  38.2826493  50.3718553  15.3791673  49.8936493
  49.7008553  15.8931673  50.1116493  50.4348553  15.4791673  49.0296493
  50.2818553  15.4701673  49.7986493  39.0558553  12.9041673  43.0286493
  39.1818553  13.7471673  43.2156493  39.7238553  12.5051673  43.4246493
  39.1738553  12.9701673  43.1146493  37.1858553   6.3871673  52.8906493
  36.6498553   5.8811673  53.3586493  37.2058553   5.9971673  52.1106493
  37.1088553   6.2541673  52.8446493  37.6708553   5.7841673  38.0306493
  37.5428553   5.3361673  38.7686493  37.0888553   5.4421673  37.4786493
  37.5658553   5.6671673  38.0586493  37.8378553   7.6141673  44.6296493
  37.0568553   7.5551673  44.2466493  37.9098553   6.8621673  45.0666493
  37.7328553   7.4951673  44.6376493  38.2678553   7.3511673  48.0976493
  38.2928553   6.6761673  47.5466493  37.6218553   7.8471673  47.7856493
  38.1768553   7.3241673  47.9706493  48.1628553   5.0641673  46.4936493
  47.5008553   5.3921673  46.9566493  48.3498553   5.6981673  45.9246493
  48.0928553   5.2061673  46.4776493  42.3678553  16.1281673  47.4896493
  42.0908553  15.4871673  46.9666493  42.1598553  16.8541673  47.0516493
  42.2968553  16.1411673  47.3476493  46.3558553   3.0331673  40.0046493
  46.8458553   3.7501673  39.9276493  45.5658553   3.2941673  39.7416493
  46.3118553   3.1771673  39.9546493  36.0668553   8.7061673  53.6566493
  36.0298553   9.2071673  52.9426493  36.3978553   7.9541673  53.3616493
  36.1098553   8.6681673  53.5076493  47.6698553  10.9111673  51.9146493
  48.1538553  11.6291673  52.0126493  48.0638553  10.4841673  51.2636493
  47.7998553  10.9541673  51.8326493  41.9658553  13.7561673  53.0916493
  42.3198553  13.5781673  53.8686493  41.5298553  13.0271673  52.8926493
  41.9538553  13.6221673  53.1776493  42.9378553   4.5031673  45.7296493
  43.4178553   5.2021673  45.9376493  43.3108553   3.8561673  46.1806493
  43.0638553   4.5111673  45.8266493  45.1268553   7.6721673  38.0036493
  45.1188553   8.3941673  37.5136493  44.4878553   7.8071673  38.5806493
  45.0318553   7.7991673  38.0166493  50.0988553  11.5421673  41.9846493
  50.4548553  11.1921673  42.6996493  50.0908553  10.8811673  41.4146493
  50.1508553  11.3921673  42.0056493  46.1438553  14.6081673  45.8286493
  45.5408553  14.3121673  45.2716493  46.6888553  15.0601673  45.3196493
  46.1348553  14.6311673  45.6706493  46.1568553  11.4591673  45.2286493
  45.3598553  11.6831673  45.5026493  46.4148553  10.8651673  45.8136493
  46.0768553  11.4041673  45.3556493  40.0488553  16.2711673  39.6766493
  39.9018553  15.4951673  40.0476493  40.7378553  16.1241673  39.1616493
  40.1288553  16.1341673  39.6556493  42.3408553  15.7871673  38.0786493
  42.9628553  15.9501673  38.6686493  42.3768553  16.4781673  37.5466493
  42.4378553  15.9131673  38.0876493  49.4168553   9.4571673  50.0746493
  49.4718553   9.5821673  49.2126493  50.1698553   9.7771673  50.3766493
  49.5358553   9.5221673  49.9916493  45.6078553  14.8061673  54.3516493
  45.7718553  15.0891673  55.1606493  45.8708553  15.4671673  53.8466493
  45.6708553  14.9461673  54.3966493  36.8418553   8.3211673  38.9076493
  37.1658553   7.5421673  38.6856493  37.4878553   8.6891673  39.3626493
  36.9848553   8.2601673  38.9416493  45.1478553   9.2631673  49.6746493
  44.9928553   9.8731673  50.2786493  45.6818553   8.7051673  50.0806493
  45.2038553   9.2711673  49.8236493  43.5318553   7.6631673  40.3326493
  43.5908553   8.3131673  40.9116493  43.3428553   6.9671673  40.8236493
  43.5128553   7.6561673  40.4906493  48.7578553  11.9921673  46.2016493
  48.2788553  12.2901673  45.5356493  48.4018553  11.2161673  46.3796493
  48.6348553  11.9211673  46.1296493  38.0278553   2.1801673  36.8446493
  37.5168553   2.2331673  36.1386493  38.8118553   2.4201673  36.5486493
  38.0678553   2.2231673  36.6966493  42.7548553   9.7101673  44.7636493
  41.9078553   9.5161673  44.8446493  43.0788553   9.5451673  45.5566493
  42.6768553   9.6571673  44.8926493  39.5068553  16.4401673  35.6496493
  39.9458553  15.7431673  35.9376493  39.7138553  17.0641673  36.2226493
  39.6028553  16.4291673  35.7766493  36.6028553   9.4031673  47.0796493
  37.3248553   9.8911673  47.0426493  36.3328553   9.3731673  46.2506493
  36.6698553   9.4711673  46.9516493  39.8328553   4.5741673  43.8146493
  40.6788553   4.3841673  43.9126493  39.4628553   3.7971673  43.6766493
  39.9028553   4.4311673  43.8086493  52.4498553  16.1581673  38.1416493
  53.1438553  15.6911673  37.8936493  51.9108553  15.5601673  38.4786493
  52.4728553  16.0001673  38.1546493  34.6538553   5.9121673  40.4696493
  35.1428553   5.6201673  41.1306493  34.7828553   5.3191673  39.8426493
  34.7448553   5.7811673  40.4746493  49.6888553   8.9341673  47.3206493
  49.6818553   8.1581673  47.7186493  48.8478553   9.1681673  47.3136493
  49.5638553   8.8541673  47.3786493  39.1788553   7.3461673  35.9556493
  38.5688553   6.9411673  36.4296493  38.7928553   7.4641673  35.1826493
  39.0318553   7.3031673  35.9116493  35.9978553  10.4551673  51.3576493
  35.5768553   9.9371673  50.7966493  35.6458553  11.2411673  51.2146493
  35.8838553  10.4951673  51.2536493  50.9448553   9.0051673  44.7576493
  50.6588553   9.4061673  45.4776493  51.8048553   8.9431673  44.8846493
  51.0298553   9.0551673  44.8826493  40.6338553   5.8071673  38.6656493
  40.9058553   6.6331673  38.7326493  39.7708553   5.8821673  38.5696493
  40.5468553   5.9401673  38.6606493  48.6068553   2.9291673  53.2976493
  48.0818553   3.3881673  53.8216493  48.2458553   2.1341673  53.2916493
  48.4758553   2.8791673  53.3736493  34.1138553   1.7771673  45.2016493
  34.1578553   2.1211673  44.4006493  34.8688553   2.0141673  45.5686493
  34.2318553   1.8631673  45.1376493  52.0758553  14.6381673  45.2866493
  52.3658553  14.8951673  44.5056493  52.7708553  14.7341673  45.8056493
  52.2218553  14.6901673  45.2476493  47.0988553   6.4981673  53.3736493
  47.1718553   6.6021673  54.2366493  46.4648553   7.0561673  53.1526493
  47.0158553   6.5961673  53.4686493  49.3668553   6.8171673  51.7386493
  49.6858553   7.6031673  51.9416493  48.9968553   6.5471673  52.4816493
  49.3598553   6.8931673  51.8786493  48.6808553  13.2411673  37.2686493
  49.0148553  12.4351673  37.3036493  47.9258553  13.1691673  37.6986493
  48.6188553  13.1111673  37.3376493  49.1628553   5.0751673  42.9276493
  48.4178553   4.7521673  43.2456493  49.1648553   5.9011673  43.2076493
  49.0528553   5.1491673  43.0156493  52.0648553   7.3591673  54.4736493
  52.0128553   7.0181673  53.6726493  52.8018553   7.8261673  54.4516493
  52.1658553   7.3781673  54.3516493  51.6028553  11.0351673  50.6796493
  52.2308553  10.4861673  50.4236493  51.5418553  11.6001673  50.0176493
  51.6868553  11.0381673  50.5436493  46.0548553  11.1161673  36.6716493
  46.7388553  10.6021673  36.5026493  45.6378553  11.1621673  35.9066493
  46.0938553  11.0471673  36.5336493  40.7368553  12.2661673  47.9756493
  40.4388553  12.8581673  48.5426493  40.7918553  12.7081673  47.2266493
  40.7008553  12.4191673  47.9486493  38.7158553  11.2161673  51.3736493
  37.9098553  10.9261673  51.5406493  38.6268553  12.0841673  51.3796493
  38.5838553  11.3011673  51.3986493  43.2528553   8.6891673  47.4666493
  43.7288553   9.0631673  48.0946493  42.4298553   8.8231673  47.7256493
  43.2018553   8.7641673  47.5976493  39.9628553   4.2921673  50.2076493
  40.1238553   3.5481673  50.6346493  39.9178553   4.0431673  49.3726493
  39.9798553   4.1451673  50.1476493  42.5168553  16.0821673  42.6946493
  43.0628553  16.7611673  42.7486493  42.1668553  16.1641673  41.8996493
  42.5458553  16.1951673  42.5846493  40.6998553  14.3101673  46.0836493
  40.0758553  14.8921673  45.9016493  40.9478553  14.0241673  45.2976493
  40.6438553  14.3541673  45.9406493  45.0088553  10.9441673  53.0726493
  45.7658553  11.2301673  52.7466493  44.4618553  10.9961673  52.3946493
  45.0398553  10.9941673  52.9236493  48.9178553  13.4941673  51.5766493
  49.2638553  13.7641673  52.3306493  49.2118553  14.0761673  50.9966493
  49.0128553  13.6201673  51.6026493  50.7808553   5.6401673  36.9156493
  51.1588553   6.3171673  36.5156493  49.9388553   5.8641673  36.9466493
  50.7118553   5.7731673  36.8606493  42.2938553   9.0861673  35.9986493
  41.4888553   8.9091673  35.7136493  42.2608553   9.9371673  36.1906493
  42.1698553   9.1851673  35.9856493  38.2238553   5.1531673  46.1486493
  38.6638553   5.0501673  45.4026493  38.7688553   4.8401673  46.7536493
  38.3688553   5.0921673  46.1276493  46.2398553   4.2551673  51.7406493
  45.5918553   4.7251673  52.0886493  46.8048553   4.1661673  52.3996493
  46.2278553   4.3111673  51.8896493  45.9278553   5.7921673  48.0386493
  46.2298553   6.2121673  48.7416493  45.9638553   4.9521673  48.2706493
  45.9778553   5.7301673  48.1766493  43.3528553  15.9591673  51.9636493
  43.8308553  15.3591673  51.5476493  43.0018553  15.5161673  52.6286493
  43.3718553  15.8051673  52.0006493  48.4758553   5.2391673  40.2906493
  48.6828553   5.0381673  41.1146493  49.2318553   5.5071673  39.9486493
  48.6178553   5.2491673  40.3616493  49.9408553   9.2661673  40.1446493
  50.4168553   8.5371673  40.0966493  49.1198553   8.9801673  40.0686493
  49.8898553   9.1161673  40.1256493  43.4118553  11.1781673  50.9836493
  42.6168553  11.1141673  51.3346493  43.4828553  12.0251673  50.7886493
  43.3048553  11.2931673  51.0066493  39.2418553  17.3851673  46.3006493
  39.2528553  17.4441673  47.1706493  38.8168553  16.6381673  46.1506493
  39.1808553  17.2831673  46.4066493  37.3998553   3.2801673  39.4556493
  37.5258553   2.9511673  38.6576493  36.5878553   3.0311673  39.6546493
  37.2988553   3.1951673  39.3676493  46.1568553  10.4331673  42.4996493
  46.2328553  10.7741673  43.2986493  46.3258553   9.5861673  42.6206493
  46.1928553  10.3581673  42.6356493  43.6788553   9.7071673  42.0646493
  43.3808553   9.3921673  42.8216493  44.3738553  10.1801673  42.2996493
  43.7378553   9.7301673  42.2116493  43.9008553  13.8251673  50.0916493
  44.5878553  13.7111673  50.6166493  44.0348553  14.6161673  49.7476493
  44.0218553  13.9251673  50.1186493  52.0768553   6.4341673  51.9026493
  51.2218553   6.3121673  52.0286493  52.2298553   6.0391673  51.1396493
  51.9728553   6.3571673  51.8086493  46.5898553   7.0991673  50.4786493
  46.3348553   6.3801673  50.9006493  47.4108553   7.2151673  50.7486493
  46.6738553   7.0101673  50.5806493  36.0058553  16.8831673  51.7426493
  35.3518553  16.3141673  51.8406493  35.6308553  17.6561673  51.8936493
  35.8538553  16.9131673  51.7796493  44.5238553   8.2891673  53.6656493
  44.8468553   8.9751673  53.2336493  43.8198553   8.6121673  54.0676493
  44.4668553   8.4381673  53.6606493  47.6078553  16.6631673  44.5946493
  47.1568553  17.3061673  44.9736493  48.3158553  16.5841673  45.0996493
  47.6458553  16.7461673  44.7256493  44.3088553  11.7531673  47.5246493
  43.6148553  12.1551673  47.8676493  44.9858553  12.1861673  47.8636493
  44.3058553  11.8761673  47.6256493  49.6858553  14.3461673  54.1046493
  50.4618553  13.9561673  54.1876493  49.2168553  14.0101673  54.7596493
  49.7308553  14.2391673  54.2136493  37.3768553   5.2911673  49.8716493
  37.7518553   5.9101673  49.3846493  38.0508553   4.8171673  50.1566493
  37.5318553   5.3131673  49.8416493  35.1518553   3.7391673  49.1466493
  35.2288553   3.5701673  48.2936493  35.8978553   4.1451673  49.3436493
  35.2728553   3.7741673  49.0496493  50.7108553   6.3791673  39.5866493
  50.8138553   6.3211673  38.7226493  51.4518553   6.0471673  39.9046493
  50.8358553   6.3221673  39.5056493  44.6308553  13.3441673  40.6936493
  44.4258553  14.1771673  40.5346493  43.8558553  12.9621673  40.8156493
  44.4858553  13.4111673  40.6886493  49.8128553   6.5251673  48.9426493
  49.8108553   5.6621673  49.0666493  49.8798553   6.8491673  49.7496493
  49.8228553   6.4451673  49.0796493  34.5488553   8.9651673  49.3706493
  34.8688553   9.1841673  48.5896493  34.4488553   8.1001673  49.3156493
  34.5808553   8.8701673  49.2476493  36.0048553   4.9011673  35.9886493
  35.3328553   4.9151673  36.5446493  36.0998553   4.0531673  35.8046493
  35.9198553   4.7781673  36.0436493  39.9928553  13.6061673  37.1026493
  40.4338553  13.6861673  37.8506493  39.1878553  13.3901673  37.3606493
  39.9388553  13.5861673  37.2516493  48.2838553   2.0311673  46.3786493
  49.1388553   2.1301673  46.5236493  47.9148553   2.5841673  46.9436493
  48.3558553   2.1281673  46.4836493  39.3118553   8.2571673  50.7556493
  38.9158553   9.0311673  50.8306493  38.9058553   7.8841673  50.0796493
  39.1938553   8.3161673  50.6666493  48.5878553   7.3111673  44.8696493
  49.2538553   7.8521673  45.0296493  48.2428553   7.6221673  44.1306493
  48.6348553   7.4371673  44.7846493  48.9008553  15.3771673  40.6766493
  48.7268553  14.7231673  41.2266493  49.6138553  15.1061673  40.2536493
  48.9808553  15.2401673  40.6956493  37.3218553  12.6761673  37.7036493
  37.0778553  12.3691673  38.4836493  37.2888553  11.9731673  37.1876493
  37.2808553  12.5271673  37.7426493  40.1408553  10.9211673  36.4466493
  39.3228553  10.6531673  36.5866493  40.1128553  11.7731673  36.6316493
  40.0158553  11.0081673  36.4946493  46.5758553  12.8301673  48.3676493
  46.7818553  13.1311673  49.1596493  46.5148553  13.5521673  47.8826493
  46.5968553  12.9811673  48.4126493  46.1098553  17.0441673  52.6136493
  45.3568553  17.0261673  52.1726493  46.2778553  17.8961673  52.6976493
  46.0238553  17.1671673  52.5606493  41.3468553   6.3111673  51.7836493
  41.0248553   5.7351673  51.2136493  40.9878553   7.0661673  51.5376493
  41.2468553   6.3371673  51.6636493  51.3878553  11.4691673  47.8256493
  51.3558553  10.6071673  47.6906493  50.6948553  11.7711673  47.3916493
  51.2808553  11.3861673  47.7416493  39.7818553  16.6671673  52.0316493
  39.8228553  16.7931673  52.8946493  40.4328553  16.1071673  51.8756493
  39.8838553  16.6031673  52.1366493  49.4928553  14.7291673  46.6226493
  50.0198553  14.6461673  45.9316493  49.1018553  13.9511673  46.6766493
  49.5128553  14.6021673  46.5286493  37.3748553  15.0501673  53.3916493
  37.9698553  15.4811673  53.8636493  37.0108553  15.6741673  52.9026493
  37.4088553  15.2061673  53.3886493  45.3658553   5.9811673  43.3236493
  45.9168553   5.3741673  43.6236493  44.9408553   6.2441673  44.0386493
  45.3848553   5.9301673  43.4726493  35.6138553   4.6311673  42.8096493
  35.2458553   4.9331673  43.5406493  36.1478553   4.0021673  43.0936493
  35.6378553   4.5831673  42.9596493  35.3018553  13.0391673  50.3206493
  34.7278553  13.4551673  50.8296493  36.0348553  13.5041673  50.4156493
  35.3258553  13.1691673  50.4096493  47.3358553   7.8121673  39.8856493
  47.4038553   6.9621673  40.0666493  46.5128553   7.8981673  39.6076493
  47.2238553   7.6991673  39.8716493  37.0878553  16.3061673  39.0956493
  36.9428553  16.4621673  38.2496493  37.9538553  16.3851673  39.1736493
  37.1948553  16.3411673  38.9826493  41.2548553   8.7031673  38.8236493
  41.3548553   8.8421673  37.9686493  42.0728553   8.6431673  39.1196493
  41.3898553   8.7141673  38.7406493  50.4148553  16.7671673  36.3036493
  51.0518553  16.6331673  36.8846493  50.0738553  15.9731673  36.1866493
  50.4588553  16.6301673  36.3716493  50.6098553   9.1851673  53.0366493
  51.2438553   9.0151673  53.6106493  51.0268553   9.5881673  52.3846493
  50.7648553   9.2201673  53.0256493  46.4898553  13.0321673  38.6256493
  46.2388553  12.9041673  39.4516493  46.1728553  12.3371673  38.2046493
  46.4058553  12.9111673  38.6856493  51.2348553   3.7491673  53.7746493
  51.0388553   4.3931673  54.3296493  50.5128553   3.2591673  53.7666493
  51.0998553   3.7721673  53.8556493  51.1338553   4.6901673  46.7456493
  50.3008553   4.9401673  46.6736493  51.0778553   3.8501673  46.9746493
  51.0028553   4.6031673  46.7686493  48.0208553   9.2961673  54.3916493
  48.8918553   9.2601673  54.3556493  47.8018553   9.7161673  53.6596493
  48.1178553   9.3521673  54.2786493  37.7748553  15.1211673  45.5726493
  37.6958553  14.3111673  45.2566493  37.3308553  15.6081673  45.0006493
  37.6978553  15.0731673  45.4416493  43.3758553  11.2401673  38.0556493
  44.0928553  10.8931673  37.6996493  43.3418553  12.0401673  37.7076493
  43.4768553  11.3071673  37.9516493  35.3468553  17.3651673  49.1536493
  35.8398553  17.3091673  49.8716493  35.5348553  16.6321673  48.7186493
  35.4478553  17.2481673  49.1956493  44.5938553   6.7971673  26.9654083
  44.0698553   7.3931673  27.3284083  44.9908553   6.4291673  27.6494083
  44.5748553   6.8311673  27.1204083  34.4628553  10.9371673  22.4214083
  34.0218553  11.0551673  23.1644083  34.1798553  10.1621673  22.1364083
  34.3558553  10.8401673  22.4894083  50.7378553  14.2381673  19.9364083
  51.4388553  13.7191673  19.9324083  50.1508553  13.7931673  19.4674083
  50.7548553  14.0951673  19.8664083  34.2058553   4.7291673  18.9284083
  33.4278553   4.8911673  18.5684083  34.2448553   3.8581673  18.9504083
  34.0968553   4.6241673  18.8784083  37.3448553   9.9921673  17.6004083
  36.9528553   9.6211673  16.9144083  37.2648553   9.3941673  18.2294083
  37.2748553   9.8491673  17.5914083  47.2648553   7.8641673  23.6414083
  47.3448553   7.8681673  22.7724083  46.6808553   7.2321673  23.7904083
  47.1898553   7.7711673  23.5354083  36.9718553  11.6331673  21.5004083
  37.5798553  11.4631673  22.1034083  36.2208553  11.4931673  21.9214083
  36.9508553  11.5871673  21.6514083  35.8628553  14.7241673  17.5774083
  36.3298553  14.8081673  16.8454083  36.3178553  14.1461673  18.0464083
  35.9988553  14.6511673  17.5384083  34.4028553  13.6721673  28.6764083
  34.5318553  13.3921673  29.4924083  33.7928553  13.1311673  28.3674083
  34.3318553  13.5511673  28.7514083  40.9768553  11.1971673  33.7434083
  40.7408553  11.1941673  34.5834083  40.2288553  11.0491673  33.3194083
  40.8308553  11.1741673  33.8044083  35.8488553   8.1931673  22.8784083
  35.3868553   7.8011673  22.2514083  36.5488553   7.6801673  22.9704083
  35.8838553   8.0601673  22.7994083  40.3568553   3.8031673  28.2254083
  41.0348553   3.8211673  27.6764083  40.3118553   2.9671673  28.4704083
  40.4498553   3.6821673  28.1804083  40.9588553  14.3891673  31.0064083
  41.0968553  15.1491673  30.5994083  41.7498553  14.0241673  31.0334083
  41.0958553  14.4481673  30.9504083  37.8498553   6.2931673  22.9014083
  38.6668553   6.1061673  23.1444083  37.3728553   5.6791673  23.2974083
  37.8998553   6.1751673  22.9964083  42.0538553  12.2741673  25.5114083
  42.4018553  11.4751673  25.5414083  42.7188553  12.7781673  25.2564083
  42.2038553  12.2301673  25.4784083  42.1108553  11.7231673  21.7224083
  42.4418553  11.0791673  22.2084083  42.3508553  11.5121673  20.9114083
  42.1948553  11.5971673  21.6744083  44.0788553   5.8541673  33.0614083
  43.2308553   5.7551673  32.8834083  44.1078553   6.5991673  33.5154083
  43.9578553   5.9501673  33.1024083  46.0988553   3.4551673  16.6894083
  45.6488553   4.1361673  16.9964083  46.2128553   2.9511673  17.3924083
  46.0498553   3.4811673  16.8384083  34.3048553   5.9541673  25.8914083
  34.0488553   6.7851673  25.8164083  33.6408553   5.5711673  26.3084083
  34.1688553   6.0201673  25.9424083  34.2148553  15.6641673  23.7914083
  33.6228553  16.2221673  23.4784083  34.6408553  15.3951673  23.0794083
  34.1908553  15.7061673  23.6404083  40.0548553  13.5081673  21.2714083
  39.4758553  13.2331673  21.8634083  40.6788553  12.8991673  21.2964083
  40.0618553  13.3781673  21.3624083  46.1978553  15.7961673  18.7934083
  46.9248553  16.2681673  18.8954083  46.4268553  15.0021673  19.0734083
  46.3398553  15.7491673  18.8504083  44.3658553  16.1881673  20.7834083
  44.5798553  16.7151673  21.4454083  45.1328553  16.0141673  20.4044083
  44.5108553  16.2401673  20.8254083  40.6398553   2.9041673  35.6804083
  40.7568553   2.4501673  34.9444083  40.9278553   3.7021673  35.4774083
  40.6998553   2.9551673  35.5414083  35.7598553  14.3341673  21.7224083
  36.4158553  13.7591673  21.7374083  36.1488553  15.0831673  21.5014083
  35.9148553  14.3591673  21.6924083  51.4928553   3.4281673  22.9844083
  51.1468553   4.1061673  23.4104083  50.8568553   2.8301673  23.0004083
  51.3478553   3.4401673  23.0494083  46.8048553  16.1981673  29.0884083
  47.5488553  16.6541673  29.0784083  46.6838553  15.9841673  28.2514083
  46.8968553  16.2341673  28.9634083  36.3728553   2.5011673  34.6644083
  35.5948553   2.1111673  34.5924083  36.8638553   2.0891673  34.0734083
  36.3298553   2.3821673  34.5664083  36.5778553  12.8211673  25.2224083
  37.0008553  12.4651673  24.5484083  36.9018553  12.3991673  25.9144083
  36.6878553  12.7061673  25.2254083  39.8088553  15.6731673  24.5184083
  40.6528553  15.7771673  24.3234083  39.5118553  16.4911673  24.5864083
  39.8898553  15.8091673  24.4994083  43.6158553   5.0701673  22.6054083
  43.9028553   4.8381673  21.8154083  44.3478553   5.1491673  23.0744083
  43.7658553   5.0471673  22.5584083  44.3378553   5.4091673  17.7264083
  44.6188553   6.1971673  17.9754083  43.5618553   5.5741673  17.3634083
  44.2648553   5.5501673  17.7094083  48.3788553  17.3831673  19.1934083
  49.0438553  17.2351673  18.6484083  48.7388553  17.3001673  19.9834083
  48.5308553  17.3491673  19.2294083  38.8068553  16.8921673  30.2584083
  39.0988553  16.8251673  31.0784083  38.1808553  16.2871673  30.2134083
  38.7578553  16.7931673  30.3734083  33.7208553   3.0491673  32.2504083
  33.7168553   3.6361673  32.8964083  34.3148553   3.3611673  31.6934083
  33.8078553   3.1821673  32.2634083  46.0588553  13.3831673  32.7924083
  46.0248553  13.7651673  33.5764083  46.9128553  13.3411673  32.6214083
  46.1798553  13.4331673  32.8834083  43.1968553  13.5801673  17.5424083
  43.0158553  14.1251673  18.1994083  43.9628553  13.8701673  17.2414083
  43.2828553  13.7041673  17.5954083  34.6578553   2.6441673  21.1654083
  34.5438553   1.7801673  21.1964083  34.1828553   2.9381673  21.8354083
  34.5708553   2.5601673  21.2684083  36.7998553  15.0541673  29.3804083
  36.1018553  14.5461673  29.5064083  37.0598553  14.8491673  28.5724083
  36.7348553  14.9491673  29.2794083  43.9618553   3.8521673  19.9104083
  43.4538553   3.1901673  19.6564083  44.0138553   4.3561673  19.2004083
  43.8948553   3.8291673  19.7684083  44.5108553  16.5471673  30.2904083
  45.2788553  16.4671673  29.8844083  43.9278553  16.4261673  29.6524083
  44.5378553  16.5171673  30.1364083  50.7878553  17.1501673  23.1914083
  50.3328553  17.8671673  23.3924083  50.1738553  16.5791673  22.9494083
  50.6298553  17.1721673  23.1854083  42.5598553   3.1601673  24.3234083
  42.6338553   3.7281673  23.6654083  42.6808553   3.6521673  25.0334083
  42.5878553   3.3171673  24.3314083  47.7848553  12.9951673  22.7354083
  48.4858553  12.5131673  22.9244083  47.1248553  12.4261673  22.7804083
  47.7908553  12.8401673  22.7694083  38.1608553  13.9051673  31.9474083
  39.0018553  13.9681673  31.7254083  38.1238553  14.3021673  32.7234083
  38.2798553  13.9731673  32.0294083  40.1238553   9.4161673  26.6964083
  40.2958553   9.2061673  27.5254083  39.4688553   8.8821673  26.4804083
  40.0528553   9.3061673  26.7874083  46.3518553   3.3301673  30.2114083
  46.2568553   3.6491673  31.0174083  45.7588553   2.6911673  30.1734083
  46.2498553   3.2821673  30.3254083  40.8738553   9.3541673  29.2864083
  40.9268553  10.2011673  29.4884083  40.5888553   8.9841673  30.0234083
  40.8398553   9.4241673  29.4244083  47.0508553  10.0491673  28.4164083
  46.5368553   9.6371673  28.9874083  46.9248553  10.8931673  28.5974083
  46.9568553  10.1131673  28.5274083  33.6948553  13.7251673  35.4974083
  34.4508553  14.0741673  35.7554083  33.8718553  12.8721673  35.4404083
  33.8328553  13.6501673  35.5274083  50.0718553   3.5101673  31.3554083
  50.8438553   3.2851673  31.6924083  49.5968553   3.7271673  32.0554083
  50.1158553   3.5091673  31.5084083  37.6158553   2.7931673  24.3254083
  37.8878553   2.3631673  23.6174083  37.4398553   2.1571673  24.8964083
  37.6298553   2.6361673  24.3054083  50.3038553  10.4881673  18.5434083
  50.4228553  10.2011673  19.3584083  51.1108553  10.5091673  18.2134083
  50.4398553  10.4491673  18.6154083  37.4398553  10.2201673  23.8744083
  38.2908553  10.1401673  23.7014083  37.0828553   9.5381673  23.4624083
  37.5128553  10.1071673  23.7874083  36.2068553  16.9451673  25.1114083
  35.5338553  16.4471673  24.8664083  36.6098553  17.1301673  24.3604083
  36.1668553  16.8991673  24.9644083  35.7568553   3.8951673  27.4074083
  36.5998553   4.1151673  27.3644083  35.3678553   4.4681673  26.8764083
  35.8238553   4.0121673  27.3224083  52.5378553  14.9971673  32.7974083
  51.8558553  15.3071673  32.3504083  52.1688553  14.5391673  33.4424083
  52.3818553  14.9751673  32.8264083  48.1988553   7.0251673  18.1284083
  47.9788553   7.7561673  17.7064083  47.7508553   7.0761673  18.8754083
  48.0998553   7.1401673  18.1764083  39.8078553  10.2271673  22.1094083
  40.5208553  10.7221673  22.1994083  40.0298553   9.6601673  21.4834083
  39.9458553  10.2161673  22.0304083  33.9638553  11.8701673  25.4294083
  33.2968553  12.3581673  25.7054083  34.6438553  12.4151673  25.4584083
  33.9658553  12.0221673  25.4744083  41.6108553   5.5801673  35.5254083
  41.1268553   6.1571673  35.9674083  41.5828553   5.8751673  34.7044083
  41.5348553   5.7091673  35.4694083  52.7088553   6.2641673  30.1374083
  52.9238553   5.4641673  29.8614083  51.8588553   6.3241673  29.9484083
  52.6148553   6.1551673  30.0684083  34.0298553   8.5541673  20.5324083
  33.8448553   7.7151673  20.6844083  34.6888553   8.5181673  19.9624083
  34.0998553   8.4251673  20.4704083  44.3308553  13.9301673  24.4364083
  43.8078553  14.5641673  24.1434083  44.6408553  13.5661673  23.7074083
  44.2988553  13.9701673  24.2854083  34.2018553  12.7181673  20.1074083
  34.7538553  13.2871673  20.4714083  33.9698553  12.2031673  20.7724083
  34.2488553  12.7261673  20.2594083  38.4058553  11.7181673  27.1964083
  38.8728553  12.0071673  27.8744083  38.9778553  11.2401673  26.7424083
  38.5598553  11.6901673  27.2294083  46.8418553   3.7321673  24.9334083
  47.1858553   3.8841673  25.7204083  46.3888553   2.9941673  25.0464083
  46.8258553   3.6451673  25.0664083  34.0318553  11.1671673  17.7354083
  34.7878553  10.7351673  17.7934083  34.0468553  11.6991673  18.4264083
  34.1458553  11.1821673  17.8464083  34.9718553   9.3881673  25.7404083
  35.4028553   9.2591673  24.9934083  34.7668553  10.2361673  25.7144083
  35.0048553   9.4941673  25.6264083  41.3178553   2.9521673  19.3904083
  41.3158553   2.8351673  18.5254083  41.1368553   3.8001673  19.4824083
  41.2908553   3.0601673  19.2764083  50.3718553  15.3791673  30.8874083
  49.7008553  15.8931673  31.1054083  50.4348553  15.4791673  30.0234083
  50.2818553  15.4701673  30.7924083  39.0558553  12.9041673  24.0224083
  39.1818553  13.7471673  24.2094083  39.7238553  12.5051673  24.4184083
  39.1738553  12.9701673  24.1084083  37.1858553   6.3871673  33.8844083
  36.6498553   5.8811673  34.3524083  37.2058553   5.9971673  33.1044083
  37.1088553   6.2541673  33.8384083  37.6708553   5.7841673  19.0244083
  37.5428553   5.3361673  19.7624083  37.0888553   5.4421673  18.4724083
  37.5658553   5.6671673  19.0524083  37.8378553   7.6141673  25.6234083
  37.0568553   7.5551673  25.2404083  37.9098553   6.8621673  26.0604083
  37.7328553   7.4951673  25.6314083  38.2678553   7.3511673  29.0914083
  38.2928553   6.6761673  28.5404083  37.6218553   7.8471673  28.7794083
  38.1768553   7.3241673  28.9644083  48.1628553   5.0641673  27.4874083
  47.5008553   5.3921673  27.9504083  48.3498553   5.6981673  26.9184083
  48.0928553   5.2061673  27.4714083  42.3678553  16.1281673  28.4834083
  42.0908553  15.4871673  27.9604083  42.1598553  16.8541673  28.0454083
  42.2968553  16.1411673  28.3414083  46.3558553   3.0331673  20.9984083
  46.8458553   3.7501673  20.9214083  45.5658553   3.2941673  20.7354083
  46.3118553   3.1771673  20.9484083  36.0668553   8.7061673  34.6504083
  36.0298553   9.2071673  33.9364083  36.3978553   7.9541673  34.3554083
  36.1098553   8.6681673  34.5014083  47.6698553  10.9111673  32.9084083
  48.1538553  11.6291673  33.0064083  48.0638553  10.4841673  32.2574083
  47.7998553  10.9541673  32.8264083  41.9658553  13.7561673  34.0854083
  42.3198553  13.5781673  34.8624083  41.5298553  13.0271673  33.8864083
  41.9538553  13.6221673  34.1714083  42.9378553   4.5031673  26.7234083
  43.4178553   5.2021673  26.9314083  43.3108553   3.8561673  27.1744083
  43.0638553   4.5111673  26.8204083  45.1268553   7.6721673  18.9974083
  45.1188553   8.3941673  18.5074083  44.4878553   7.8071673  19.5744083
  45.0318553   7.7991673  19.0104083  50.0988553  11.5421673  22.9784083
  50.4548553  11.1921673  23.6934083  50.0908553  10.8811673  22.4084083
  50.1508553  11.3921673  22.9994083  46.1438553  14.6081673  26.8224083
  45.5408553  14.3121673  26.2654083  46.6888553  15.0601673  26.3134083
  46.1348553  14.6311673  26.6644083  46.1568553  11.4591673  26.2224083
  45.3598553  11.6831673  26.4964083  46.4148553  10.8651673  26.8074083
  46.0768553  11.4041673  26.3494083  40.0488553  16.2711673  20.6704083
  39.9018553  15.4951673  21.0414083  40.7378553  16.1241673  20.1554083
  40.1288553  16.1341673  20.6494083  42.3408553  15.7871673  19.0724083
  42.9628553  15.9501673  19.6624083  42.3768553  16.4781673  18.5404083
  42.4378553  15.9131673  19.0814083  49.4168553   9.4571673  31.0684083
  49.4718553   9.5821673  30.2064083  50.1698553   9.7771673  31.3704083
  49.5358553   9.5221673  30.9854083  45.6078553  14.8061673  35.3454083
  45.7718553  15.0891673  36.1544083  45.8708553  15.4671673  34.8404083
  45.6708553  14.9461673  35.3904083  36.8418553   8.3211673  19.9014083
  37.1658553   7.5421673  19.6794083  37.4878553   8.6891673  20.3564083
  36.9848553   8.2601673  19.9354083  45.1478553   9.2631673  30.6684083
  44.9928553   9.8731673  31.2724083  45.6818553   8.7051673  31.0744083
  45.2038553   9.2711673  30.8174083  43.5318553   7.6631673  21.3264083
  43.5908553   8.3131673  21.9054083  43.3428553   6.9671673  21.8174083
  43.5128553   7.6561673  21.4844083  48.7578553  11.9921673  27.1954083
  48.2788553  12.2901673  26.5294083  48.4018553  11.2161673  27.3734083
  48.6348553  11.9211673  27.1234083  38.0278553   2.1801673  17.8384083
  37.5168553   2.2331673  17.1324083  38.8118553   2.4201673  17.5424083
  38.0678553   2.2231673  17.6904083  42.7548553   9.7101673  25.7574083
  41.9078553   9.5161673  25.8384083  43.0788553   9.5451673  26.5504083
  42.6768553   9.6571673  25.8864083  39.5068553  16.4401673  16.6434083
  39.9458553  15.7431673  16.9314083  39.7138553  17.0641673  17.2164083
  39.6028553  16.4291673  16.7704083  36.6028553   9.4031673  28.0734083
  37.3248553   9.8911673  28.0364083  36.3328553   9.3731673  27.2444083
  36.6698553   9.4711673  27.9454083  39.8328553   4.5741673  24.8084083
  40.6788553   4.3841673  24.9064083  39.4628553   3.7971673  24.6704083
  39.9028553   4.4311673  24.8024083  52.4498553  16.1581673  19.1354083
  53.1438553  15.6911673  18.8874083  51.9108553  15.5601673  19.4724083
  52.4728553  16.0001673  19.1484083  34.6538553   5.9121673  21.4634083
  35.1428553   5.6201673  22.1244083  34.7828553   5.3191673  20.8364083
  34.7448553   5.7811673  21.4684083  49.6888553   8.9341673  28.3144083
  49.6818553   8.1581673  28.7124083  48.8478553   9.1681673  28.3074083
  49.5638553   8.8541673  28.3724083  39.1788553   7.3461673  16.9494083
  38.5688553   6.9411673  17.4234083  38.7928553   7.4641673  16.1764083
  39.0318553   7.3031673  16.9054083  35.9978553  10.4551673  32.3514083
  35.5768553   9.9371673  31.7904083  35.6458553  11.2411673  32.2084083
  35.8838553  10.4951673  32.2474083  50.9448553   9.0051673  25.7514083
  50.6588553   9.4061673  26.4714083  51.8048553   8.9431673  25.8784083
  51.0298553   9.0551673  25.8764083  40.6338553   5.8071673  19.6594083
  40.9058553   6.6331673  19.7264083  39.7708553   5.8821673  19.5634083
  40.5468553   5.9401673  19.6544083  48.6068553   2.9291673  34.2914083
  48.0818553   3.3881673  34.8154083  48.2458553   2.1341673  34.2854083
  48.4758553   2.8791673  34.3674083  34.1138553   1.7771673  26.1954083
  34.1578553   2.1211673  25.3944083  34.8688553   2.0141673  26.5624083
  34.2318553   1.8631673  26.1314083  52.0758553  14.6381673  26.2804083
  52.3658553  14.8951673  25.4994083  52.7708553  14.7341673  26.7994083
  52.2218553  14.6901673  26.2414083  47.0988553   6.4981673  34.3674083
  47.1718553   6.6021673  35.2304083  46.4648553   7.0561673  34.1464083
  47.0158553   6.5961673  34.4624083  49.3668553   6.8171673  32.7324083
  49.6858553   7.6031673  32.9354083  48.9968553   6.5471673  33.4754083
  49.3598553   6.8931673  32.8724083  48.6808553  13.2411673  18.2624083
  49.0148553  12.4351673  18.2974083  47.9258553  13.1691673  18.6924083
  48.6188553  13.1111673  18.3314083  49.1628553   5.0751673  23.9214083
  48.4178553   4.7521673  24.2394083  49.1648553   5.9011673  24.2014083
  49.0528553   5.1491673  24.0094083  52.0648553   7.3591673  35.4674083
  52.0128553   7.0181673  34.6664083  52.8018553   7.8261673  35.4454083
  52.1658553   7.3781673  35.3454083  51.6028553  11.0351673  31.6734083
  52.2308553  10.4861673  31.4174083  51.5418553  11.6001673  31.0114083
  51.6868553  11.0381673  31.5374083  46.0548553  11.1161673  17.6654083
  46.7388553  10.6021673  17.4964083  45.6378553  11.1621673  16.9004083
  46.0938553  11.0471673  17.5274083  40.7368553  12.2661673  28.9694083
  40.4388553  12.8581673  29.5364083  40.7918553  12.7081673  28.2204083
  40.7008553  12.4191673  28.9424083  38.7158553  11.2161673  32.3674083
  37.9098553  10.9261673  32.5344083  38.6268553  12.0841673  32.3734083
  38.5838553  11.3011673  32.3924083  43.2528553   8.6891673  28.4604083
  43.7288553   9.0631673  29.0884083  42.4298553   8.8231673  28.7194083
  43.2018553   8.7641673  28.5914083  39.9628553   4.2921673  31.2014083
  40.1238553   3.5481673  31.6284083  39.9178553   4.0431673  30.3664083
  39.9798553   4.1451673  31.1414083  42.5168553  16.0821673  23.6884083
  43.0628553  16.7611673  23.7424083  42.1668553  16.1641673  22.8934083
  42.5458553  16.1951673  23.5784083  40.6998553  14.3101673  27.0774083
  40.0758553  14.8921673  26.8954083  40.9478553  14.0241673  26.2914083
  40.6438553  14.3541673  26.9344083  45.0088553  10.9441673  34.0664083
  45.7658553  11.2301673  33.7404083  44.4618553  10.9961673  33.3884083
  45.0398553  10.9941673  33.9174083  48.9178553  13.4941673  32.5704083
  49.2638553  13.7641673  33.3244083  49.2118553  14.0761673  31.9904083
  49.0128553  13.6201673  32.5964083  50.7808553   5.6401673  17.9094083
  51.1588553   6.3171673  17.5094083  49.9388553   5.8641673  17.9404083
  50.7118553   5.7731673  17.8544083  42.2938553   9.0861673  16.9924083
  41.4888553   8.9091673  16.7074083  42.2608553   9.9371673  17.1844083
  42.1698553   9.1851673  16.9794083  38.2238553   5.1531673  27.1424083
  38.6638553   5.0501673  26.3964083  38.7688553   4.8401673  27.7474083
  38.3688553   5.0921673  27.1214083  46.2398553   4.2551673  32.7344083
  45.5918553   4.7251673  33.0824083  46.8048553   4.1661673  33.3934083
  46.2278553   4.3111673  32.8834083  45.9278553   5.7921673  29.0324083
  46.2298553   6.2121673  29.7354083  45.9638553   4.9521673  29.2644083
  45.9778553   5.7301673  29.1704083  43.3528553  15.9591673  32.9574083
  43.8308553  15.3591673  32.5414083  43.0018553  15.5161673  33.6224083
  43.3718553  15.8051673  32.9944083  48.4758553   5.2391673  21.2844083
  48.6828553   5.0381673  22.1084083  49.2318553   5.5071673  20.9424083
  48.6178553   5.2491673  21.3554083  49.9408553   9.2661673  21.1384083
  50.4168553   8.5371673  21.0904083  49.1198553   8.9801673  21.0624083
  49.8898553   9.1161673  21.1194083  43.4118553  11.1781673  31.9774083
  42.6168553  11.1141673  32.3284083  43.4828553  12.0251673  31.7824083
  43.3048553  11.2931673  32.0004083  39.2418553  17.3851673  27.2944083
  39.2528553  17.4441673  28.1644083  38.8168553  16.6381673  27.1444083
  39.1808553  17.2831673  27.4004083  37.3998553   3.2801673  20.4494083
  37.5258553   2.9511673  19.6514083  36.5878553   3.0311673  20.6484083
  37.2988553   3.1951673  20.3614083  46.1568553  10.4331673  23.4934083
  46.2328553  10.7741673  24.2924083  46.3258553   9.5861673  23.6144083
  46.1928553  10.3581673  23.6294083  43.6788553   9.7071673  23.0584083
  43.3808553   9.3921673  23.8154083  44.3738553  10.1801673  23.2934083
  43.7378553   9.7301673  23.2054083  43.9008553  13.8251673  31.0854083
  44.5878553  13.7111673  31.6104083  44.0348553  14.6161673  30.7414083
  44.0218553  13.9251673  31.1124083  52.0768553   6.4341673  32.8964083
  51.2218553   6.3121673  33.0224083  52.2298553   6.0391673  32.1334083
  51.9728553   6.3571673  32.8024083  46.5898553   7.0991673  31.4724083
  46.3348553   6.3801673  31.8944083  47.4108553   7.2151673  31.7424083
  46.6738553   7.0101673  31.5744083  36.0058553  16.8831673  32.7364083
  35.3518553  16.3141673  32.8344083  35.6308553  17.6561673  32.8874083
  35.8538553  16.9131673  32.7734083  44.5238553   8.2891673  34.6594083
  44.8468553   8.9751673  34.2274083  43.8198553   8.6121673  35.0614083
  44.4668553   8.4381673  34.6544083  47.6078553  16.6631673  25.5884083
  47.1568553  17.3061673  25.9674083  48.3158553  16.5841673  26.0934083
  47.6458553  16.7461673  25.7194083  44.3088553  11.7531673  28.5184083
  43.6148553  12.1551673  28.8614083  44.9858553  12.1861673  28.8574083
  44.3058553  11.8761673  28.6194083  49.6858553  14.3461673  35.0984083
  50.4618553  13.9561673  35.1814083  49.2168553  14.0101673  35.7534083
  49.7308553  14.2391673  35.2074083  37.3768553   5.2911673  30.8654083
  37.7518553   5.9101673  30.3784083  38.0508553   4.8171673  31.1504083
  37.5318553   5.3131673  30.8354083  35.1518553   3.7391673  30.1404083
  35.2288553   3.5701673  29.2874083  35.8978553   4.1451673  30.3374083
  35.2728553   3.7741673  30.0434083  50.7108553   6.3791673  20.5804083
  50.8138553   6.3211673  19.7164083  51.4518553   6.0471673  20.8984083
  50.8358553   6.3221673  20.4994083  44.6308553  13.3441673  21.6874083
  44.4258553  14.1771673  21.5284083  43.8558553  12.9621673  21.8094083
  44.4858553  13.4111673  21.6824083  49.8128553   6.5251673  29.9364083
  49.8108553   5.6621673  30.0604083  49.8798553   6.8491673  30.7434083
  49.8228553   6.4451673  30.0734083  34.5488553   8.9651673  30.3644083
  34.8688553   9.1841673  29.5834083  34.4488553   8.1001673  30.3094083
  34.5808553   8.8701673  30.2414083  36.0048553   4.9011673  16.9824083
  35.3328553   4.9151673  17.5384083  36.0998553   4.0531673  16.7984083
  35.9198553   4.7781673  17.0374083  39.9928553  13.6061673  18.0964083
  40.4338553  13.6861673  18.8444083  39.1878553  13.3901673  18.3544083
  39.9388553  13.5861673  18.2454083  48.2838553   2.0311673  27.3724083
  49.1388553   2.1301673  27.5174083  47.9148553   2.5841673  27.9374083
  48.3558553   2.1281673  27.4774083  39.3118553   8.2571673  31.7494083
  38.9158553   9.0311673  31.8244083  38.9058553   7.8841673  31.0734083
  39.1938553   8.3161673  31.6604083  48.5878553   7.3111673  25.8634083
  49.2538553   7.8521673  26.0234083  48.2428553   7.6221673  25.1244083
  48.6348553   7.4371673  25.7784083  48.9008553  15.3771673  21.6704083
  48.7268553  14.7231673  22.2204083  49.6138553  15.1061673  21.2474083
  48.9808553  15.2401673  21.6894083  37.3218553  12.6761673  18.6974083
  37.0778553  12.3691673  19.4774083  37.2888553  11.9731673  18.1814083
  37.2808553  12.5271673  18.7364083  40.1408553  10.9211673  17.4404083
  39.3228553  10.6531673  17.5804083  40.1128553  11.7731673  17.6254083
  40.0158553  11.0081673  17.4884083  46.5758553  12.8301673  29.3614083
  46.7818553  13.1311673  30.1534083  46.5148553  13.5521673  28.8764083
  46.5968553  12.9811673  29.4064083  46.1098553  17.0441673  33.6074083
  45.3568553  17.0261673  33.1664083  46.2778553  17.8961673  33.6914083
  46.0238553  17.1671673  33.5544083  41.3468553   6.3111673  32.7774083
  41.0248553   5.7351673  32.2074083  40.9878553   7.0661673  32.5314083
  41.2468553   6.3371673  32.6574083  51.3878553  11.4691673  28.8194083
  51.3558553  10.6071673  28.6844083  50.6948553  11.7711673  28.3854083
  51.2808553  11.3861673  28.7354083  39.7818553  16.6671673  33.0254083
  39.8228553  16.7931673  33.8884083  40.4328553  16.1071673  32.8694083
  39.8838553  16.6031673  33.1304083  49.4928553  14.7291673  27.6164083
  50.0198553  14.6461673  26.9254083  49.1018553  13.9511673  27.6704083
  49.5128553  14.6021673  27.5224083  37.3748553  15.0501673  34.3854083
  37.9698553  15.4811673  34.8574083  37.0108553  15.6741673  33.8964083
  37.4088553  15.2061673  34.3824083  45.3658553   5.9811673  24.3174083
  45.9168553   5.3741673  24.6174083  44.9408553   6.2441673  25.0324083
  45.3848553   5.9301673  24.4664083  35.6138553   4.6311673  23.8034083
  35.2458553   4.9331673  24.5344083  36.1478553   4.0021673  24.0874083
  35.6378553   4.5831673  23.9534083  35.3018553  13.0391673  31.3144083
  34.7278553  13.4551673  31.8234083  36.0348553  13.5041673  31.4094083
  35.3258553  13.1691673  31.4034083  47.3358553   7.8121673  20.8794083
  47.4038553   6.9621673  21.0604083  46.5128553   7.8981673  20.6014083
  47.2238553   7.6991673  20.8654083  37.0878553  16.3061673  20.0894083
  36.9428553  16.4621673  19.2434083  37.9538553  16.3851673  20.1674083
  37.1948553  16.3411673  19.9764083  41.2548553   8.7031673  19.8174083
  41.3548553   8.8421673  18.9624083  42.0728553   8.6431673  20.1134083
  41.3898553   8.7141673  19.7344083  50.4148553  16.7671673  17.2974083
  51.0518553  16.6331673  17.8784083  50.0738553  15.9731673  17.1804083
  50.4588553  16.6301673  17.3654083  50.6098553   9.1851673  34.0304083
  51.2438553   9.0151673  34.6044083  51.0268553   9.5881673  33.3784083
  50.7648553   9.2201673  34.0194083  46.4898553  13.0321673  19.6194083
  46.2388553  12.9041673  20.4454083  46.1728553  12.3371673  19.1984083
  46.4058553  12.9111673  19.6794083  51.2348553   3.7491673  34.7684083
  51.0388553   4.3931673  35.3234083  50.5128553   3.2591673  34.7604083
  51.0998553   3.7721673  34.8494083  51.1338553   4.6901673  27.7394083
  50.3008553   4.9401673  27.6674083  51.0778553   3.8501673  27.9684083
  51.0028553   4.6031673  27.7624083  48.0208553   9.2961673  35.3854083
  48.8918553   9.2601673  35.3494083  47.8018553   9.7161673  34.6534083
  48.1178553   9.3521673  35.2724083  37.7748553  15.1211673  26.5664083
  37.6958553  14.3111673  26.2504083  37.3308553  15.6081673  25.9944083
  37.6978553  15.0731673  26.4354083  43.3758553  11.2401673  19.0494083
  44.0928553  10.8931673  18.6934083  43.3418553  12.0401673  18.7014083
  43.4768553  11.3071673  18.9454083  35.3468553  17.3651673  30.1474083
  35.8398553  17.3091673  30.8654083  35.5348553  16.6321673  29.7124083
  35.4478553  17.2481673  30.1894083  44.5938553   6.7971673   7.9591673
  44.0698553   7.3931673   8.3221673  44.9908553   6.4291673   8.6431673
  44.5748553   6.8311673   8.1141673  34.4628553  10.9371673   3.4151673
  34.0218553  11.0551673   4.1581673  34.1798553  10.1621673   3.1301673
  34.3558553  10.8401673   3.4831673  47.2648553   7.8641673   4.6351673
  47.3448553   7.8681673   3.7661673  46.6808553   7.2321673   4.7841673
  47.1898553   7.7711673   4.5291673  36.9718553  11.6331673   2.4941673
  37.5798553  11.4631673   3.0971673  36.2208553  11.4931673   2.9151673
  36.9508553  11.5871673   2.6451673  34.4028553  13.6721673   9.6701673
  34.5318553  13.3921673  10.4861673  33.7928553  13.1311673   9.3611673
  34.3318553  13.5511673   9.7451673  40.9768553  11.1971673  14.7371673
  40.7408553  11.1941673  15.5771673  40.2288553  11.0491673  14.3131673
  40.8308553  11.1741673  14.7981673  35.8488553   8.1931673   3.8721673
  35.3868553   7.8011673   3.2451673  36.5488553   7.6801673   3.9641673
  35.8838553   8.0601673   3.7931673  40.3568553   3.8031673   9.2191673
  41.0348553   3.8211673   8.6701673  40.3118553   2.9671673   9.4641673
  40.4498553   3.6821673   9.1741673  40.9588553  14.3891673  12.0001673
  41.0968553  15.1491673  11.5931673  41.7498553  14.0241673  12.0271673
  41.0958553  14.4481673  11.9441673  37.8498553   6.2931673   3.8951673
  38.6668553   6.1061673   4.1381673  37.3728553   5.6791673   4.2911673
  37.8998553   6.1751673   3.9901673  42.0538553  12.2741673   6.5051673
  42.4018553  11.4751673   6.5351673  42.7188553  12.7781673   6.2501673
  42.2038553  12.2301673   6.4721673  42.1108553  11.7231673   2.7161673
  42.4418553  11.0791673   3.2021673  42.3508553  11.5121673   1.9051673
  42.1948553  11.5971673   2.6681673  44.0788553   5.8541673  14.0551673
  43.2308553   5.7551673  13.8771673  44.1078553   6.5991673  14.5091673
  43.9578553   5.9501673  14.0961673  34.3048553   5.9541673   6.8851673
  34.0488553   6.7851673   6.8101673  33.6408553   5.5711673   7.3021673
  34.1688553   6.0201673   6.9361673  34.2148553  15.6641673   4.7851673
  33.6228553  16.2221673   4.4721673  34.6408553  15.3951673   4.0731673
  34.1908553  15.7061673   4.6341673  40.0548553  13.5081673   2.2651673
  39.4758553  13.2331673   2.8571673  40.6788553  12.8991673   2.2901673
  40.0618553  13.3781673   2.3561673  44.3658553  16.1881673   1.7771673
  44.5798553  16.7151673   2.4391673  45.1328553  16.0141673   1.3981673
  44.5108553  16.2401673   1.8191673  40.6398553   2.9041673  16.6741673
  40.7568553   2.4501673  15.9381673  40.9278553   3.7021673  16.4711673
  40.6998553   2.9551673  16.5351673  35.7598553  14.3341673   2.7161673
  36.4158553  13.7591673   2.7311673  36.1488553  15.0831673   2.4951673
  35.9148553  14.3591673   2.6861673  51.4928553   3.4281673   3.9781673
  51.1468553   4.1061673   4.4041673  50.8568553   2.8301673   3.9941673
  51.3478553   3.4401673   4.0431673  46.8048553  16.1981673  10.0821673
  47.5488553  16.6541673  10.0721673  46.6838553  15.9841673   9.2451673
  46.8968553  16.2341673   9.9571673  36.3728553   2.5011673  15.6581673
  35.5948553   2.1111673  15.5861673  36.8638553   2.0891673  15.0671673
  36.3298553   2.3821673  15.5601673  36.5778553  12.8211673   6.2161673
  37.0008553  12.4651673   5.5421673  36.9018553  12.3991673   6.9081673
  36.6878553  12.7061673   6.2191673  39.8088553  15.6731673   5.5121673
  40.6528553  15.7771673   5.3171673  39.5118553  16.4911673   5.5801673
  39.8898553  15.8091673   5.4931673  43.6158553   5.0701673   3.5991673
  43.9028553   4.8381673   2.8091673  44.3478553   5.1491673   4.0681673
  43.7658553   5.0471673   3.5521673  38.8068553  16.8921673  11.2521673
  39.0988553  16.8251673  12.0721673  38.1808553  16.2871673  11.2071673
  38.7578553  16.7931673  11.3671673  33.7208553   3.0491673  13.2441673
  33.7168553   3.6361673  13.8901673  34.3148553   3.3611673  12.6871673
  33.8078553   3.1821673  13.2571673  46.0588553  13.3831673  13.7861673
  46.0248553  13.7651673  14.5701673  46.9128553  13.3411673  13.6151673
  46.1798553  13.4331673  13.8771673  34.6578553   2.6441673   2.1591673
  34.5438553   1.7801673   2.1901673  34.1828553   2.9381673   2.8291673
  34.5708553   2.5601673   2.2621673  36.7998553  15.0541673  10.3741673
  36.1018553  14.5461673  10.5001673  37.0598553  14.8491673   9.5661673
  36.7348553  14.9491673  10.2731673  44.5108553  16.5471673  11.2841673
  45.2788553  16.4671673  10.8781673  43.9278553  16.4261673  10.6461673
  44.5378553  16.5171673  11.1301673  50.7878553  17.1501673   4.1851673
  50.3328553  17.8671673   4.3861673  50.1738553  16.5791673   3.9431673
  50.6298553  17.1721673   4.1791673  42.5598553   3.1601673   5.3171673
  42.6338553   3.7281673   4.6591673  42.6808553   3.6521673   6.0271673
  42.5878553   3.3171673   5.3251673  47.7848553  12.9951673   3.7291673
  48.4858553  12.5131673   3.9181673  47.1248553  12.4261673   3.7741673
  47.7908553  12.8401673   3.7631673  38.1608553  13.9051673  12.9411673
  39.0018553  13.9681673  12.7191673  38.1238553  14.3021673  13.7171673
  38.2798553  13.9731673  13.0231673  40.1238553   9.4161673   7.6901673
  40.2958553   9.2061673   8.5191673  39.4688553   8.8821673   7.4741673
  40.0528553   9.3061673   7.7811673  46.3518553   3.3301673  11.2051673
  46.2568553   3.6491673  12.0111673  45.7588553   2.6911673  11.1671673
  46.2498553   3.2821673  11.3191673  40.8738553   9.3541673  10.2801673
  40.9268553  10.2011673  10.4821673  40.5888553   8.9841673  11.0171673
  40.8398553   9.4241673  10.4181673  47.0508553  10.0491673   9.4101673
  46.5368553   9.6371673   9.9811673  46.9248553  10.8931673   9.5911673
  46.9568553  10.1131673   9.5211673  33.6948553  13.7251673  16.4911673
  34.4508553  14.0741673  16.7491673  33.8718553  12.8721673  16.4341673
  33.8328553  13.6501673  16.5211673  50.0718553   3.5101673  12.3491673
  50.8438553   3.2851673  12.6861673  49.5968553   3.7271673  13.0491673
  50.1158553   3.5091673  12.5021673  37.6158553   2.7931673   5.3191673
  37.8878553   2.3631673   4.6111673  37.4398553   2.1571673   5.8901673
  37.6298553   2.6361673   5.2991673  37.4398553  10.2201673   4.8681673
  38.2908553  10.1401673   4.6951673  37.0828553   9.5381673   4.4561673
  37.5128553  10.1071673   4.7811673  36.2068553  16.9451673   6.1051673
  35.5338553  16.4471673   5.8601673  36.6098553  17.1301673   5.3541673
  36.1668553  16.8991673   5.9581673  35.7568553   3.8951673   8.4011673
  36.5998553   4.1151673   8.3581673  35.3678553   4.4681673   7.8701673
  35.8238553   4.0121673   8.3161673  52.5378553  14.9971673  13.7911673
  51.8558553  15.3071673  13.3441673  52.1688553  14.5391673  14.4361673
  52.3818553  14.9751673  13.8201673  39.8078553  10.2271673   3.1031673
  40.5208553  10.7221673   3.1931673  40.0298553   9.6601673   2.4771673
  39.9458553  10.2161673   3.0241673  33.9638553  11.8701673   6.4231673
  33.2968553  12.3581673   6.6991673  34.6438553  12.4151673   6.4521673
  33.9658553  12.0221673   6.4681673  41.6108553   5.5801673  16.5191673
  41.1268553   6.1571673  16.9611673  41.5828553   5.8751673  15.6981673
  41.5348553   5.7091673  16.4631673  52.7088553   6.2641673  11.1311673
  52.9238553   5.4641673  10.8551673  51.8588553   6.3241673  10.9421673
  52.6148553   6.1551673  11.0621673  44.3308553  13.9301673   5.4301673
  43.8078553  14.5641673   5.1371673  44.6408553  13.5661673   4.7011673
  44.2988553  13.9701673   5.2791673  38.4058553  11.7181673   8.1901673
  38.8728553  12.0071673   8.8681673  38.9778553  11.2401673   7.7361673
  38.5598553  11.6901673   8.2231673  46.8418553   3.7321673   5.9271673
  47.1858553   3.8841673   6.7141673  46.3888553   2.9941673   6.0401673
  46.8258553   3.6451673   6.0601673  34.9718553   9.3881673   6.7341673
  35.4028553   9.2591673   5.9871673  34.7668553  10.2361673   6.7081673
  35.0048553   9.4941673   6.6201673  50.3718553  15.3791673  11.8811673
  49.7008553  15.8931673  12.0991673  50.4348553  15.4791673  11.0171673
  50.2818553  15.4701673  11.7861673  39.0558553  12.9041673   5.0161673
  39.1818553  13.7471673   5.2031673  39.7238553  12.5051673   5.4121673
  39.1738553  12.9701673   5.1021673  37.1858553   6.3871673  14.8781673
  36.6498553   5.8811673  15.3461673  37.2058553   5.9971673  14.0981673
  37.1088553   6.2541673  14.8321673  37.8378553   7.6141673   6.6171673
  37.0568553   7.5551673   6.2341673  37.9098553   6.8621673   7.0541673
  37.7328553   7.4951673   6.6251673  38.2678553   7.3511673  10.0851673
  38.2928553   6.6761673   9.5341673  37.6218553   7.8471673   9.7731673
  38.1768553   7.3241673   9.9581673  48.1628553   5.0641673   8.4811673
  47.5008553   5.3921673   8.9441673  48.3498553   5.6981673   7.9121673
  48.0928553   5.2061673   8.4651673  42.3678553  16.1281673   9.4771673
  42.0908553  15.4871673   8.9541673  42.1598553  16.8541673   9.0391673
  42.2968553  16.1411673   9.3351673  46.3558553   3.0331673   1.9921673
  46.8458553   3.7501673   1.9151673  45.5658553   3.2941673   1.7291673
  46.3118553   3.1771673   1.9421673  36.0668553   8.7061673  15.6441673
  36.0298553   9.2071673  14.9301673  36.3978553   7.9541673  15.3491673
  36.1098553   8.6681673  15.4951673  47.6698553  10.9111673  13.9021673
  48.1538553  11.6291673  14.0001673  48.0638553  10.4841673  13.2511673
  47.7998553  10.9541673  13.8201673  41.9658553  13.7561673  15.0791673
  42.3198553  13.5781673  15.8561673  41.5298553  13.0271673  14.8801673
  41.9538553  13.6221673  15.1651673  42.9378553   4.5031673   7.7171673
  43.4178553   5.2021673   7.9251673  43.3108553   3.8561673   8.1681673
  43.0638553   4.5111673   7.8141673  50.0988553  11.5421673   3.9721673
  50.4548553  11.1921673   4.6871673  50.0908553  10.8811673   3.4021673
  50.1508553  11.3921673   3.9931673  46.1438553  14.6081673   7.8161673
  45.5408553  14.3121673   7.2591673  46.6888553  15.0601673   7.3071673
  46.1348553  14.6311673   7.6581673  46.1568553  11.4591673   7.2161673
  45.3598553  11.6831673   7.4901673  46.4148553  10.8651673   7.8011673
  46.0768553  11.4041673   7.3431673  49.4168553   9.4571673  12.0621673
  49.4718553   9.5821673  11.2001673  50.1698553   9.7771673  12.3641673
  49.5358553   9.5221673  11.9791673  45.6078553  14.8061673  16.3391673
  45.7718553  15.0891673  17.1481673  45.8708553  15.4671673  15.8341673
  45.6708553  14.9461673  16.3841673  45.1478553   9.2631673  11.6621673
  44.9928553   9.8731673  12.2661673  45.6818553   8.7051673  12.0681673
  45.2038553   9.2711673  11.8111673  43.5318553   7.6631673   2.3201673
  43.5908553   8.3131673   2.8991673  43.3428553   6.9671673   2.8111673
  43.5128553   7.6561673   2.4781673  48.7578553  11.9921673   8.1891673
  48.2788553  12.2901673   7.5231673  48.4018553  11.2161673   8.3671673
  48.6348553  11.9211673   8.1171673  42.7548553   9.7101673   6.7511673
  41.9078553   9.5161673   6.8321673  43.0788553   9.5451673   7.5441673
  42.6768553   9.6571673   6.8801673  36.6028553   9.4031673   9.0671673
  37.3248553   9.8911673   9.0301673  36.3328553   9.3731673   8.2381673
  36.6698553   9.4711673   8.9391673  39.8328553   4.5741673   5.8021673
  40.6788553   4.3841673   5.9001673  39.4628553   3.7971673   5.6641673
  39.9028553   4.4311673   5.7961673  34.6538553   5.9121673   2.4571673
  35.1428553   5.6201673   3.1181673  34.7828553   5.3191673   1.8301673
  34.7448553   5.7811673   2.4621673  49.6888553   8.9341673   9.3081673
  49.6818553   8.1581673   9.7061673  48.8478553   9.1681673   9.3011673
  49.5638553   8.8541673   9.3661673  35.9978553  10.4551673  13.3451673
  35.5768553   9.9371673  12.7841673  35.6458553  11.2411673  13.2021673
  35.8838553  10.4951673  13.2411673  50.9448553   9.0051673   6.7451673
  50.6588553   9.4061673   7.4651673  51.8048553   8.9431673   6.8721673
  51.0298553   9.0551673   6.8701673  48.6068553   2.9291673  15.2851673
  48.0818553   3.3881673  15.8091673  48.2458553   2.1341673  15.2791673
  48.4758553   2.8791673  15.3611673  34.1138553   1.7771673   7.1891673
  34.1578553   2.1211673   6.3881673  34.8688553   2.0141673   7.5561673
  34.2318553   1.8631673   7.1251673  52.0758553  14.6381673   7.2741673
  52.3658553  14.8951673   6.4931673  52.7708553  14.7341673   7.7931673
  52.2218553  14.6901673   7.2351673  47.0988553   6.4981673  15.3611673
  47.1718553   6.6021673  16.2241673  46.4648553   7.0561673  15.1401673
  47.0158553   6.5961673  15.4561673  49.3668553   6.8171673  13.7261673
  49.6858553   7.6031673  13.9291673  48.9968553   6.5471673  14.4691673
  49.3598553   6.8931673  13.8661673  49.1628553   5.0751673   4.9151673
  48.4178553   4.7521673   5.2331673  49.1648553   5.9011673   5.1951673
  49.0528553   5.1491673   5.0031673  52.0648553   7.3591673  16.4611673
  52.0128553   7.0181673  15.6601673  52.8018553   7.8261673  16.4391673
  52.1658553   7.3781673  16.3391673  51.6028553  11.0351673  12.6671673
  52.2308553  10.4861673  12.4111673  51.5418553  11.6001673  12.0051673
  51.6868553  11.0381673  12.5311673  40.7368553  12.2661673   9.9631673
  40.4388553  12.8581673  10.5301673  40.7918553  12.7081673   9.2141673
  40.7008553  12.4191673   9.9361673  38.7158553  11.2161673  13.3611673
  37.9098553  10.9261673  13.5281673  38.6268553  12.0841673  13.3671673
  38.5838553  11.3011673  13.3861673  43.2528553   8.6891673   9.4541673
  43.7288553   9.0631673  10.0821673  42.4298553   8.8231673   9.7131673
  43.2018553   8.7641673   9.5851673  39.9628553   4.2921673  12.1951673
  40.1238553   3.5481673  12.6221673  39.9178553   4.0431673  11.3601673
  39.9798553   4.1451673  12.1351673  42.5168553  16.0821673   4.6821673
  43.0628553  16.7611673   4.7361673  42.1668553  16.1641673   3.8871673
  42.5458553  16.1951673   4.5721673  40.6998553  14.3101673   8.0711673
  40.0758553  14.8921673   7.8891673  40.9478553  14.0241673   7.2851673
  40.6438553  14.3541673   7.9281673  45.0088553  10.9441673  15.0601673
  45.7658553  11.2301673  14.7341673  44.4618553  10.9961673  14.3821673
  45.0398553  10.9941673  14.9111673  48.9178553  13.4941673  13.5641673
  49.2638553  13.7641673  14.3181673  49.2118553  14.0761673  12.9841673
  49.0128553  13.6201673  13.5901673  38.2238553   5.1531673   8.1361673
  38.6638553   5.0501673   7.3901673  38.7688553   4.8401673   8.7411673
  38.3688553   5.0921673   8.1151673  46.2398553   4.2551673  13.7281673
  45.5918553   4.7251673  14.0761673  46.8048553   4.1661673  14.3871673
  46.2278553   4.3111673  13.8771673  45.9278553   5.7921673  10.0261673
  46.2298553   6.2121673  10.7291673  45.9638553   4.9521673  10.2581673
  45.9778553   5.7301673  10.1641673  43.3528553  15.9591673  13.9511673
  43.8308553  15.3591673  13.5351673  43.0018553  15.5161673  14.6161673
  43.3718553  15.8051673  13.9881673  48.4758553   5.2391673   2.2781673
  48.6828553   5.0381673   3.1021673  49.2318553   5.5071673   1.9361673
  48.6178553   5.2491673   2.3491673  49.9408553   9.2661673   2.1321673
  50.4168553   8.5371673   2.0841673  49.1198553   8.9801673   2.0561673
  49.8898553   9.1161673   2.1131673  43.4118553  11.1781673  12.9711673
  42.6168553  11.1141673  13.3221673  43.4828553  12.0251673  12.7761673
  43.3048553  11.2931673  12.9941673  39.2418553  17.3851673   8.2881673
  39.2528553  17.4441673   9.1581673  38.8168553  16.6381673   8.1381673
  39.1808553  17.2831673   8.3941673  46.1568553  10.4331673   4.4871673
  46.2328553  10.7741673   5.2861673  46.3258553   9.5861673   4.6081673
  46.1928553  10.3581673   4.6231673  43.6788553   9.7071673   4.0521673
  43.3808553   9.3921673   4.8091673  44.3738553  10.1801673   4.2871673
  43.7378553   9.7301673   4.1991673  43.9008553  13.8251673  12.0791673
  44.5878553  13.7111673  12.6041673  44.0348553  14.6161673  11.7351673
  44.0218553  13.9251673  12.1061673  52.0768553   6.4341673  13.8901673
  51.2218553   6.3121673  14.0161673  52.2298553   6.0391673  13.1271673
  51.9728553   6.3571673  13.7961673  46.5898553   7.0991673  12.4661673
  46.3348553   6.3801673  12.8881673  47.4108553   7.2151673  12.7361673
  46.6738553   7.0101673  12.5681673  36.0058553  16.8831673  13.7301673
  35.3518553  16.3141673  13.8281673  35.6308553  17.6561673  13.8811673
  35.8538553  16.9131673  13.7671673  44.5238553   8.2891673  15.6531673
  44.8468553   8.9751673  15.2211673  43.8198553   8.6121673  16.0551673
  44.4668553   8.4381673  15.6481673  47.6078553  16.6631673   6.5821673
  47.1568553  17.3061673   6.9611673  48.3158553  16.5841673   7.0871673
  47.6458553  16.7461673   6.7131673  44.3088553  11.7531673   9.5121673
  43.6148553  12.1551673   9.8551673  44.9858553  12.1861673   9.8511673
  44.3058553  11.8761673   9.6131673  49.6858553  14.3461673  16.0921673
  50.4618553  13.9561673  16.1751673  49.2168553  14.0101673  16.7471673
  49.7308553  14.2391673  16.2011673  37.3768553   5.2911673  11.8591673
  37.7518553   5.9101673  11.3721673  38.0508553   4.8171673  12.1441673
  37.5318553   5.3131673  11.8291673  35.1518553   3.7391673  11.1341673
  35.2288553   3.5701673  10.2811673  35.8978553   4.1451673  11.3311673
  35.2728553   3.7741673  11.0371673  44.6308553  13.3441673   2.6811673
  44.4258553  14.1771673   2.5221673  43.8558553  12.9621673   2.8031673
  44.4858553  13.4111673   2.6761673  49.8128553   6.5251673  10.9301673
  49.8108553   5.6621673  11.0541673  49.8798553   6.8491673  11.7371673
  49.8228553   6.4451673  11.0671673  34.5488553   8.9651673  11.3581673
  34.8688553   9.1841673  10.5771673  34.4488553   8.1001673  11.3031673
  34.5808553   8.8701673  11.2351673  48.2838553   2.0311673   8.3661673
  49.1388553   2.1301673   8.5111673  47.9148553   2.5841673   8.9311673
  48.3558553   2.1281673   8.4711673  39.3118553   8.2571673  12.7431673
  38.9158553   9.0311673  12.8181673  38.9058553   7.8841673  12.0671673
  39.1938553   8.3161673  12.6541673  48.5878553   7.3111673   6.8571673
  49.2538553   7.8521673   7.0171673  48.2428553   7.6221673   6.1181673
  48.6348553   7.4371673   6.7721673  48.9008553  15.3771673   2.6641673
  48.7268553  14.7231673   3.2141673  49.6138553  15.1061673   2.2411673
  48.9808553  15.2401673   2.6831673  46.5758553  12.8301673  10.3551673
  46.7818553  13.1311673  11.1471673  46.5148553  13.5521673   9.8701673
  46.5968553  12.9811673  10.4001673  46.1098553  17.0441673  14.6011673
  45.3568553  17.0261673  14.1601673  46.2778553  17.8961673  14.6851673
  46.0238553  17.1671673  14.5481673  41.3468553   6.3111673  13.7711673
  41.0248553   5.7351673  13.2011673  40.9878553   7.0661673  13.5251673
  41.2468553   6.3371673  13.6511673  51.3878553  11.4691673   9.8131673
  51.3558553  10.6071673   9.6781673  50.6948553  11.7711673   9.3791673
  51.2808553  11.3861673   9.7291673  39.7818553  16.6671673  14.0191673
  39.8228553  16.7931673  14.8821673  40.4328553  16.1071673  13.8631673
  39.8838553  16.6031673  14.1241673  49.4928553  14.7291673   8.6101673
  50.0198553  14.6461673   7.9191673  49.1018553  13.9511673   8.6641673
  49.5128553  14.6021673   8.5161673  37.3748553  15.0501673  15.3791673
  37.9698553  15.4811673  15.8511673  37.0108553  15.6741673  14.8901673
  37.4088553  15.2061673  15.3761673  45.3658553   5.9811673   5.3111673
  45.9168553   5.3741673   5.6111673  44.9408553   6.2441673   6.0261673
  45.3848553   5.9301673   5.4601673  35.6138553   4.6311673   4.7971673
  35.2458553   4.9331673   5.5281673  36.1478553   4.0021673   5.0811673
  35.6378553   4.5831673   4.9471673  35.3018553  13.0391673  12.3081673
  34.7278553  13.4551673  12.8171673  36.0348553  13.5041673  12.4031673
  35.3258553  13.1691673  12.3971673  47.3358553   7.8121673   1.8731673
  47.4038553   6.9621673   2.0541673  46.5128553   7.8981673   1.5951673
  47.2238553   7.6991673   1.8591673  50.6098553   9.1851673  15.0241673
  51.2438553   9.0151673  15.5981673  51.0268553   9.5881673  14.3721673
  50.7648553   9.2201673  15.0131673  51.2348553   3.7491673  15.7621673
  51.0388553   4.3931673  16.3171673  50.5128553   3.2591673  15.7541673
  51.0998553   3.7721673  15.8431673  51.1338553   4.6901673   8.7331673
  50.3008553   4.9401673   8.6611673  51.0778553   3.8501673   8.9621673
  51.0028553   4.6031673   8.7561673  48.0208553   9.2961673  16.3791673
  48.8918553   9.2601673  16.3431673  47.8018553   9.7161673  15.6471673
  48.1178553   9.3521673  16.2661673  37.7748553  15.1211673   7.5601673
  37.6958553  14.3111673   7.2441673  37.3308553  15.6081673   6.9881673
  37.6978553  15.0731673   7.4291673  35.3468553  17.3651673  11.1411673
  35.8398553  17.3091673  11.8591673  35.5348553  16.6321673  10.7061673
  35.4478553  17.2481673  11.1831673  25.9200113  55.3154913  79.3131313
  25.6750113  55.8034913  78.6331313  26.7830113  55.2424913  79.2131313
  26.0110113  55.3764913  79.1981313  25.7290113  62.2314913  83.9841313
  25.2050113  62.8274913  84.3471313  26.1260113  61.8634913  84.6681313
  25.7100113  62.2654913  84.1391313  15.5980113  66.3714913  79.4401313
  15.1570113  66.4894913  80.1831313  15.3150113  65.5964913  79.1551313
  15.4910113  66.2744913  79.5081313  31.8730113  69.6724913  76.9551313
  32.5740113  69.1534913  76.9511313  31.2860113  69.2274913  76.4861313
  31.8900113  69.5294913  76.8851313  15.3410113  60.1634913  75.9471313
  14.5630113  60.3254913  75.5871313  15.3800113  59.2924913  75.9691313
  15.2320113  60.0584913  75.8971313  18.4800113  65.4264913  74.6191313
  18.0880113  65.0554913  73.9331313  18.4000113  64.8284913  75.2481313
  18.4100113  65.2834913  74.6101313  28.4000113  63.2984913  80.6601313
  28.4800113  63.3024913  79.7911313  27.8160113  62.6664913  80.8091313
  28.3250113  63.2054913  80.5541313  18.1070113  67.0674913  78.5191313
  18.7150113  66.8974913  79.1221313  17.3560113  66.9274913  78.9401313
  18.0860113  67.0214913  78.6701313  22.3890113  56.4024913  78.4681313
  22.3190113  57.0794913  77.9221313  23.1300113  56.0144913  78.2191313
  22.4880113  56.4454913  78.3501313  16.9980113  70.1584913  74.5961313
  17.4650113  70.2424913  73.8641313  17.4530113  69.5804913  75.0651313
  17.1340113  70.0854913  74.5571313  15.5380113  69.1064913  85.6951313
  15.6670113  68.8264913  86.5111313  14.9280113  68.5654913  85.3861313
  15.4670113  68.9854913  85.7701313  16.9840113  63.6274913  79.8971313
  16.5220113  63.2354913  79.2701313  17.6840113  63.1144913  79.9891313
  17.0190113  63.4944913  79.8181313  21.4920113  59.2374913  85.2441313
  22.1700113  59.2554913  84.6951313  21.4470113  58.4014913  85.4891313
  21.5850113  59.1164913  85.1991313  18.9850113  61.7274913  79.9201313
  19.8020113  61.5404913  80.1631313  18.5080113  61.1134913  80.3161313
  19.0350113  61.6094913  80.0151313  23.1890113  67.7084913  82.5301313
  23.5370113  66.9094913  82.5601313  23.8540113  68.2124913  82.2751313
  23.3390113  67.6644913  82.4971313  23.2460113  67.1574913  78.7411313
  23.5770113  66.5134913  79.2271313  23.4860113  66.9464913  77.9301313
  23.3300113  67.0314913  78.6931313  19.5820113  56.8214913  79.1861313
  19.2860113  57.3224913  78.5361313  20.4490113  56.8994913  79.1291313
  19.6660113  56.9074913  79.0821313  22.5610113  55.9634913  81.4091313
  22.6340113  56.8234913  81.5381313  22.5230113  55.8884913  80.5411313
  22.5660113  56.0794913  81.3001313  27.2340113  58.8894913  73.7081313
  26.7840113  59.5704913  74.0151313  27.3480113  58.3854913  74.4111313
  27.1850113  58.9154913  73.8571313  15.4400113  61.3884913  82.9101313
  15.1840113  62.2194913  82.8351313  14.7760113  61.0054913  83.3271313
  15.3040113  61.4544913  82.9611313  21.1900113  68.9424913  78.2901313
  20.6110113  68.6674913  78.8821313  21.8140113  68.3334913  78.3151313
  21.1970113  68.8124913  78.3811313  18.4690113  56.2054913  83.4011313
  17.9480113  55.5774913  83.0931313  19.0600113  55.7684913  83.8721313
  18.4800113  56.0474913  83.4251313  16.8950113  69.7684913  78.7411313
  17.5510113  69.1934913  78.7561313  17.2840113  70.5174913  78.5201313
  17.0500113  69.7934913  78.7111313  32.6280113  58.8624913  80.0031313
  32.2820113  59.5404913  80.4291313  31.9920113  58.2644913  80.0191313
  32.4830113  58.8744913  80.0681313  17.7130113  68.2554913  82.2411313
  18.1360113  67.8994913  81.5671313  18.0370113  67.8334913  82.9331313
  17.8230113  68.1404913  82.2441313  24.7510113  60.5044913  79.6241313
  25.0380113  60.2724913  78.8341313  25.4830113  60.5834913  80.0931313
  24.9010113  60.4814913  79.5771313  25.4730113  60.8434913  74.7451313
  25.7540113  61.6314913  74.9941313  24.6970113  61.0084913  74.3821313
  25.4000113  60.9844913  74.7281313  32.3030113  57.1854913  85.3721313
  33.0600113  57.2574913  84.9441313  32.3660113  56.4124913  85.7711313
  32.4240113  57.0824913  85.3671313  24.3320113  69.0144913  74.5611313
  24.1510113  69.5594913  75.2181313  25.0980113  69.3044913  74.2601313
  24.4180113  69.1384913  74.6141313  27.8390113  56.9104913  75.6151313
  28.3790113  56.2284913  75.6911313  27.9010113  57.3084913  76.3891313
  27.9280113  56.8684913  75.7411313  15.7930113  58.0784913  78.1841313
  15.6790113  57.2144913  78.2151313  15.3180113  58.3724913  78.8541313
  15.7060113  57.9944913  78.2871313  17.9350113  70.4884913  86.3991313
  17.2370113  69.9804913  86.5251313  18.1950113  70.2834913  85.5911313
  17.8700113  70.3834913  86.2981313  25.0970113  59.2864913  76.9291313
  24.5890113  58.6244913  76.6751313  25.1490113  59.7904913  76.2191313
  25.0300113  59.2634913  76.7871313  25.0970113  56.2274913  76.8201313
  24.6420113  55.8254913  76.1941313  25.8700113  56.3824913  76.4451313
  25.1440113  56.1914913  76.6721313  23.6950113  58.5944913  81.3421313
  23.7690113  59.1624913  80.6841313  23.8160113  59.0864913  82.0521313
  23.7230113  58.7514913  81.3501313  28.9200113  68.4294913  79.7541313
  29.6210113  67.9474913  79.9431313  28.2600113  67.8604913  79.7991313
  28.9260113  68.2744913  79.7881313  18.3030113  54.4174913  79.6901313
  18.8390113  55.1054913  79.6801313  18.3060113  54.1434913  78.8621313
  18.3820113  54.4784913  79.5661313  21.2590113  64.8504913  83.7151313
  21.4310113  64.6404913  84.5441313  20.6040113  64.3164913  83.4991313
  21.1880113  64.7404913  83.8061313  27.4870113  58.7644913  87.2301313
  27.3920113  59.0834913  88.0361313  26.8940113  58.1254913  87.1921313
  27.3850113  58.7164913  87.3441313  22.0090113  64.7884913  86.3051313
  22.0620113  65.6354913  86.5071313  21.7240113  64.4184913  87.0421313
  21.9750113  64.8584913  86.4431313  28.1860113  65.4834913  85.4351313
  27.6720113  65.0714913  86.0061313  28.0600113  66.3274913  85.6161313
  28.0920113  65.5474913  85.5461313  28.7430113  54.7084913  80.0661313
  28.7920113  54.3904913  80.8771313  29.0660113  54.0644913  79.5731313
  28.7980113  54.5664913  80.1131313  18.7510113  58.2274913  81.3441313
  19.0230113  57.7974913  80.6361313  18.5750113  57.5914913  81.9151313
  18.7650113  58.0704913  81.3241313  31.4390113  65.9224913  75.5621313
  31.5580113  65.6354913  76.3771313  32.2460113  65.9434913  75.2321313
  31.5750113  65.8834913  75.6341313  18.5750113  65.6544913  80.8931313
  19.4260113  65.5744913  80.7201313  18.2180113  64.9724913  80.4811313
  18.6480113  65.5414913  80.8061313  16.8920113  59.3294913  84.4261313
  17.7350113  59.5494913  84.3831313  16.5030113  59.9024913  83.8951313
  16.9590113  59.4464913  84.3411313  29.3340113  62.4594913  75.1471313
  29.1140113  63.1904913  74.7251313  28.8860113  62.5104913  75.8941313
  29.2350113  62.5744913  75.1951313  20.9430113  65.6614913  79.1281313
  21.6560113  66.1564913  79.2181313  21.1650113  65.0944913  78.5021313
  21.0810113  65.6504913  79.0491313  33.5210113  57.3204913  74.6001313
  32.8590113  56.7524913  74.6231313  33.3280113  57.8324913  73.9201313
  33.3950113  57.3124913  74.5031313  15.0990113  67.3044913  82.4481313
  14.4320113  67.7924913  82.7241313  15.7790113  67.8494913  82.4771313
  15.1010113  67.4564913  82.4931313  33.8440113  61.6984913  87.1561313
  34.0590113  60.8984913  86.8801313  32.9940113  61.7584913  86.9671313
  33.7500113  61.5894913  87.0871313  15.1650113  63.9884913  77.5511313
  14.9800113  63.1494913  77.7031313  15.8240113  63.9524913  76.9811313
  15.2350113  63.8594913  77.4891313  31.5230113  56.8784913  76.8791313
  32.2690113  56.4714913  77.0781313  31.7860113  57.5934913  76.4541313
  31.6720113  56.9244913  76.8461313  25.4660113  69.3644913  81.4551313
  24.9430113  69.9984913  81.1621313  25.7760113  69.0004913  80.7261313
  25.4340113  69.4044913  81.3041313  15.3370113  68.1524913  77.1261313
  15.8890113  68.7214913  77.4901313  15.1050113  67.6374913  77.7911313
  15.3840113  68.1604913  77.2781313  19.5410113  67.1524913  84.2151313
  20.0080113  67.4414913  84.8931313  20.1130113  66.6744913  83.7611313
  19.6950113  67.1244913  84.2481313  27.9770113  59.1664913  81.9521313
  28.3210113  59.3184913  82.7391313  27.5240113  58.4284913  82.0651313
  27.9610113  59.0794913  82.0851313  15.1670113  66.6014913  74.7541313
  15.9230113  66.1694913  74.8121313  15.1820113  67.1334913  75.4451313
  15.2810113  66.6164913  74.8651313  16.1070113  64.8224913  82.7591313
  16.5380113  64.6934913  82.0121313  15.9020113  65.6704913  82.7331313
  16.1400113  64.9284913  82.6451313  22.4530113  58.3864913  76.4091313
  22.4510113  58.2694913  75.5441313  22.2720113  59.2344913  76.5011313
  22.4260113  58.4944913  76.2951313  20.1910113  68.3384913  81.0411313
  20.3170113  69.1814913  81.2281313  20.8590113  67.9394913  81.4371313
  20.3090113  68.4044913  81.1271313  18.8060113  61.2184913  76.0431313
  18.6780113  60.7704913  76.7811313  18.2240113  60.8764913  75.4911313
  18.7010113  61.1014913  76.0711313  18.9730113  63.0484913  82.6421313
  18.1920113  62.9894913  82.2591313  19.0450113  62.2964913  83.0791313
  18.8680113  62.9294913  82.6501313  19.4030113  62.7854913  86.1101313
  19.4280113  62.1104913  85.5591313  18.7570113  63.2814913  85.7981313
  19.3120113  62.7584913  85.9831313  29.2980113  60.4984913  84.5061313
  28.6360113  60.8264913  84.9691313  29.4850113  61.1324913  83.9371313
  29.2280113  60.6404913  84.4901313  25.9430113  56.4044913  87.9351313
  26.0920113  55.5794913  87.6921313  26.3220113  56.4594913  88.7191313
  26.0210113  56.2904913  88.0151313  27.4910113  58.4674913  78.0171313
  27.9810113  59.1844913  77.9401313  26.7010113  58.7284913  77.7541313
  27.4470113  58.6114913  77.9671313  24.0730113  59.9374913  83.7421313
  24.5530113  60.6364913  83.9501313  24.4460113  59.2904913  84.1931313
  24.1990113  59.9454913  83.8391313  26.2620113  63.1064913  76.0161313
  26.2540113  63.8284913  75.5261313  25.6230113  63.2414913  76.5931313
  26.1670113  63.2334913  76.0291313  31.2340113  66.9764913  79.9971313
  31.5900113  66.6264913  80.7121313  31.2260113  66.3154913  79.4271313
  31.2860113  66.8264913  80.0181313  27.2790113  70.0424913  83.8411313
  26.6760113  69.7464913  83.2841313  27.8240113  70.4944913  83.3321313
  27.2700113  70.0654913  83.6831313  27.2920113  66.8934913  83.2411313
  26.4950113  67.1174913  83.5151313  27.5500113  66.2994913  83.8261313
  27.2120113  66.8384913  83.3681313  20.8550113  55.4484913  75.6771313
  20.9520113  55.3414913  76.5381313  20.1470113  55.9544913  75.6121313
  20.7650113  55.5074913  75.7951313  30.5520113  64.8914913  88.0871313
  30.6070113  65.0164913  87.2251313  31.3050113  65.2114913  88.3891313
  30.6710113  64.9564913  88.0041313  17.9770113  63.7554913  76.9201313
  18.3010113  62.9764913  76.6981313  18.6230113  64.1234913  77.3751313
  18.1200113  63.6944913  76.9541313  26.2830113  64.6974913  87.6871313
  26.1280113  65.3074913  88.2911313  26.8170113  64.1394913  88.0931313
  26.3390113  64.7054913  87.8361313  14.9740113  55.4164913  77.8881313
  15.1030113  54.7084913  77.3961313  14.6070113  55.0984913  78.6131313
  14.9390113  55.2644913  77.9231313  24.6670113  63.0974913  78.3451313
  24.7260113  63.7474913  78.9241313  24.4780113  62.4014913  78.8361313
  24.6480113  63.0904913  78.5031313  29.8930113  67.4264913  84.2141313
  29.4140113  67.7244913  83.5481313  29.5370113  66.6504913  84.3921313
  29.7700113  67.3554913  84.1421313  19.1630113  57.6144913  74.8571313
  18.6520113  57.6674913  74.1511313  19.9470113  57.8544913  74.5611313
  19.2030113  57.6574913  74.7091313  23.8900113  65.1444913  82.7761313
  23.0430113  64.9504913  82.8571313  24.2140113  64.9794913  83.5691313
  23.8120113  65.0914913  82.9051313  17.7380113  64.8374913  85.0921313
  18.4600113  65.3254913  85.0551313  17.4680113  64.8074913  84.2631313
  17.8050113  64.9054913  84.9641313  20.9680113  60.0084913  81.8271313
  21.8140113  59.8184913  81.9251313  20.5980113  59.2314913  81.6891313
  21.0380113  59.8654913  81.8211313  15.7890113  61.3464913  78.4821313
  16.2780113  61.0544913  79.1431313  15.9180113  60.7534913  77.8551313
  15.8800113  61.2154913  78.4871313  30.8240113  64.3684913  85.3331313
  30.8170113  63.5924913  85.7311313  29.9830113  64.6024913  85.3261313
  30.6990113  64.2884913  85.3911313  20.3140113  62.7804913  73.9681313
  19.7040113  62.3754913  74.4421313  19.9280113  62.8984913  73.1951313
  20.1670113  62.7374913  73.9241313  32.0800113  64.4394913  82.7701313
  31.7940113  64.8404913  83.4901313  32.9400113  64.3774913  82.8971313
  32.1650113  64.4894913  82.8951313  21.7690113  61.2414913  76.6781313
  22.0410113  62.0674913  76.7451313  20.9060113  61.3164913  76.5821313
  21.6820113  61.3744913  76.6731313  15.2490113  57.2114913  83.2141313
  15.2930113  57.5554913  82.4131313  16.0040113  57.4484913  83.5811313
  15.3670113  57.2974913  83.1501313  33.2110113  70.0724913  83.2991313
  33.5010113  70.3294913  82.5181313  33.9060113  70.1684913  83.8181313
  33.3570113  70.1244913  83.2601313  29.8160113  68.6754913  75.2811313
  30.1500113  67.8694913  75.3161313  29.0610113  68.6034913  75.7111313
  29.7540113  68.5454913  75.3501313  30.2980113  60.5094913  80.9401313
  29.5530113  60.1864913  81.2581313  30.3000113  61.3354913  81.2201313
  30.1880113  60.5834913  81.0281313  32.7380113  66.4694913  88.6921313
  33.3660113  65.9204913  88.4361313  32.6770113  67.0344913  88.0301313
  32.8220113  66.4724913  88.5561313  27.1900113  66.5504913  74.6841313
  27.8740113  66.0364913  74.5151313  26.7730113  66.5964913  73.9191313
  27.2290113  66.4814913  74.5461313  21.8720113  67.7004913  85.9881313
  21.5740113  68.2924913  86.5551313  21.9270113  68.1424913  85.2391313
  21.8360113  67.8534913  85.9611313  29.2100113  56.8394913  88.4011313
  29.9540113  57.2914913  88.3381313  28.6440113  57.3094913  87.9321313
  29.2370113  56.9764913  88.3231313  24.3880113  64.1234913  85.4791313
  24.8640113  64.4974913  86.1071313  23.5650113  64.2574913  85.7381313
  24.3370113  64.1984913  85.6101313  21.0980113  59.7264913  88.2201313
  21.2590113  58.9824913  88.6471313  21.0530113  59.4774913  87.3851313
  21.1150113  59.5794913  88.1601313  30.4950113  54.8194913  86.0711313
  30.2150113  55.6444913  86.0271313  31.2110113  54.8724913  86.5671313
  30.5600113  54.9494913  86.1381313  22.8500113  55.5344913  88.1001313
  23.5550113  55.8544913  87.6981313  23.0910113  54.7274913  88.3271313
  22.9890113  55.4624913  88.0741313  21.8350113  69.7444913  84.0961313
  21.2110113  70.3264913  83.9141313  22.0830113  69.4584913  83.3101313
  21.7790113  69.7884913  83.9531313  31.9160113  61.0744913  74.9281313
  32.2940113  61.7514913  74.5281313  31.0740113  61.2984913  74.9591313
  31.8470113  61.2074913  74.8731313  23.4290113  64.5204913  74.0111313
  22.6240113  64.3434913  73.7261313  23.3960113  65.3714913  74.2031313
  23.3050113  64.6194913  73.9981313  19.3590113  60.5874913  84.1611313
  19.7990113  60.4844913  83.4151313  19.9040113  60.2744913  84.7661313
  19.5040113  60.5264913  84.1401313  27.0630113  61.2264913  86.0511313
  27.3650113  61.6464913  86.7541313  27.0990113  60.3864913  86.2831313
  27.1130113  61.1644913  86.1891313  29.6110113  60.6734913  78.3031313
  29.8180113  60.4724913  79.1271313  30.3670113  60.9414913  77.9611313
  29.7530113  60.6834913  78.3741313  22.9060113  55.5724913  84.2081313
  22.0800113  55.4234913  84.4451313  22.8660113  55.6074913  83.3371313
  22.7780113  55.5554913  84.1141313  30.6330113  56.7564913  79.7771313
  29.9190113  56.2854913  79.9481313  30.4710113  57.0974913  78.9911313
  30.5040113  56.7374913  79.6861313  31.0760113  64.7004913  78.1571313
  31.5520113  63.9714913  78.1091313  30.2550113  64.4144913  78.0811313
  31.0250113  64.5504913  78.1381313  18.5350113  58.7144913  77.4681313
  18.6610113  58.3854913  76.6701313  17.7230113  58.4654913  77.6671313
  18.4340113  58.6294913  77.3801313  27.2920113  65.8674913  80.5121313
  27.3680113  66.2084913  81.3111313  27.4610113  65.0204913  80.6331313
  27.3280113  65.7924913  80.6481313  24.8140113  65.1414913  80.0771313
  24.5160113  64.8264913  80.8341313  25.5090113  65.6144913  80.3121313
  24.8730113  65.1644913  80.2241313  25.0360113  69.2594913  88.1041313
  25.7230113  69.1454913  88.6291313  25.1700113  70.0504913  87.7601313
  25.1570113  69.3594913  88.1311313  27.7250113  62.5334913  88.4911313
  27.4700113  61.8144913  88.9131313  28.5460113  62.6494913  88.7611313
  27.8090113  62.4444913  88.5931313  25.4440113  67.1874913  85.5371313
  24.7500113  67.5894913  85.8801313  26.1210113  67.6204913  85.8761313
  25.4410113  67.3104913  85.6381313  18.5120113  60.7254913  87.8841313
  18.8870113  61.3444913  87.3971313  19.1860113  60.2514913  88.1691313
  18.6670113  60.7474913  87.8541313  16.2870113  59.1734913  87.1591313
  16.3640113  59.0044913  86.3061313  17.0330113  59.5794913  87.3561313
  16.4080113  59.2084913  87.0621313  31.8460113  61.8134913  77.5991313
  31.9490113  61.7554913  76.7351313  32.5870113  61.4814913  77.9171313
  31.9710113  61.7564913  77.5181313  25.7660113  68.7784913  78.7061313
  25.5610113  69.6114913  78.5471313  24.9910113  68.3964913  78.8281313
  25.6210113  68.8454913  78.7011313  30.9480113  61.9594913  86.9551313
  30.9460113  61.0964913  87.0791313  31.0150113  62.2834913  87.7621313
  30.9580113  61.8794913  87.0921313  15.6840113  64.3994913  87.3831313
  16.0040113  64.6184913  86.6021313  15.5840113  63.5344913  87.3281313
  15.7160113  64.3044913  87.2601313  17.1400113  60.3354913  74.0011313
  16.4680113  60.3494913  74.5571313  17.2350113  59.4874913  73.8171313
  17.0550113  60.2124913  74.0561313  25.8210113  56.9494913  81.5911313
  25.1210113  57.4674913  81.5351313  25.8590113  56.5694913  80.8071313
  25.7230113  56.9704913  81.4671313  21.1280113  69.0404913  75.1151313
  21.5690113  69.1204913  75.8631313  20.3230113  68.8244913  75.3731313
  21.0740113  69.0204913  75.2641313  29.4190113  57.4654913  84.3911313
  30.2740113  57.5644913  84.5361313  29.0500113  58.0184913  84.9561313
  29.4910113  57.5624913  84.4961313  20.4470113  63.6914913  88.7681313
  20.0510113  64.4654913  88.8431313  20.0410113  63.3184913  88.0921313
  20.3290113  63.7504913  88.6791313  29.7230113  62.7454913  82.8821313
  30.3890113  63.2864913  83.0421313  29.3780113  63.0564913  82.1431313
  29.7700113  62.8714913  82.7971313  18.4570113  68.1104913  75.7161313
  18.2130113  67.8034913  76.4961313  18.4240113  67.4074913  75.2001313
  18.4160113  67.9614913  75.7551313  21.2760113  66.3554913  74.4591313
  20.4580113  66.0874913  74.5991313  21.2480113  67.2074913  74.6441313
  21.1510113  66.4424913  74.5071313  20.8760113  56.6684913  86.2181313
  20.0120113  56.7524913  86.2981313  21.0960113  56.1544913  86.8871313
  20.7810113  56.6054913  86.3291313  32.8940113  55.3034913  87.5471313
  32.8420113  55.2594913  88.4171313  33.5810113  54.8004913  87.3571313
  32.9880113  55.2234913  87.6471313  24.9790113  57.4164913  84.5921313
  24.2420113  56.9624913  84.7051313  25.5500113  57.0144913  85.1151313
  24.9540113  57.2894913  84.6861313  27.7110113  68.2644913  86.3801313
  27.9170113  68.5654913  87.1721313  27.6500113  68.9864913  85.8951313
  27.7320113  68.4154913  86.4251313  23.2780113  54.9974913  74.4231313
  23.3560113  55.2444913  73.5901313  22.5350113  55.3744913  74.6811313
  23.1800113  55.0894913  74.3381313  32.5230113  66.9034913  85.8381313
  32.4910113  66.0414913  85.7031313  31.8300113  67.2054913  85.4041313
  32.4160113  66.8204913  85.7541313  30.6280113  70.1634913  84.6351313
  31.1550113  70.0804913  83.9441313  30.2370113  69.3854913  84.6891313
  30.6480113  70.0364913  84.5411313  18.0960113  56.7514913  86.8661313
  17.7530113  55.9844913  86.6321313  17.4010113  57.2754913  86.9301313
  17.9430113  56.7154913  86.8411313  27.1420113  55.6074913  83.8431313
  27.8120113  56.1514913  83.9701313  26.6390113  56.0314913  83.2701313
  27.1670113  55.7504913  83.7771313  26.5010113  61.4154913  81.3361313
  27.0520113  60.8084913  81.6361313  26.0760113  61.6784913  82.0511313
  26.5200113  61.3644913  81.4851313  16.7490113  60.0654913  80.8221313
  16.3810113  60.3674913  81.5531313  17.2830113  59.4364913  81.1061313
  16.7730113  60.0174913  80.9721313  16.4370113  68.4734913  88.3331313
  15.8630113  68.8894913  88.8421313  17.1700113  68.9384913  88.4281313
  16.4610113  68.6034913  88.4221313  28.4710113  63.2464913  77.8981313
  28.5390113  62.3964913  78.0791313  27.6480113  63.3324913  77.6201313
  28.3590113  63.1334913  77.8841313  22.3900113  64.1374913  76.8361313
  22.4900113  64.2764913  75.9811313  23.2080113  64.0774913  77.1321313
  22.5250113  64.1484913  76.7531313  27.6250113  68.4664913  76.6381313
  27.3740113  68.3384913  77.4641313  27.3080113  67.7714913  76.2171313
  27.5410113  68.3454913  76.6981313  32.2690113  60.1244913  84.7581313
  31.4360113  60.3744913  84.6861313  32.2130113  59.2844913  84.9871313
  32.1380113  60.0374913  84.7811313  24.5110113  66.6744913  76.0681313
  25.2280113  66.3274913  75.7121313  24.4770113  67.4744913  75.7201313
  24.6120113  66.7414913  75.9641313  25.9200113  55.3154913  60.3068903
  25.6750113  55.8034913  59.6268903  26.7830113  55.2424913  60.2068903
  26.0110113  55.3764913  60.1918903  25.7290113  62.2314913  64.9778903
  25.2050113  62.8274913  65.3408903  26.1260113  61.8634913  65.6618903
  25.7100113  62.2654913  65.1328903  15.5980113  66.3714913  60.4338903
  15.1570113  66.4894913  61.1768903  15.3150113  65.5964913  60.1488903
  15.4910113  66.2744913  60.5018903  31.8730113  69.6724913  57.9488903
  32.5740113  69.1534913  57.9448903  31.2860113  69.2274913  57.4798903
  31.8900113  69.5294913  57.8788903  15.3410113  60.1634913  56.9408903
  14.5630113  60.3254913  56.5808903  15.3800113  59.2924913  56.9628903
  15.2320113  60.0584913  56.8908903  18.4800113  65.4264913  55.6128903
  18.0880113  65.0554913  54.9268903  18.4000113  64.8284913  56.2418903
  18.4100113  65.2834913  55.6038903  28.4000113  63.2984913  61.6538903
  28.4800113  63.3024913  60.7848903  27.8160113  62.6664913  61.8028903
  28.3250113  63.2054913  61.5478903  18.1070113  67.0674913  59.5128903
  18.7150113  66.8974913  60.1158903  17.3560113  66.9274913  59.9338903
  18.0860113  67.0214913  59.6638903  22.3890113  56.4024913  59.4618903
  22.3190113  57.0794913  58.9158903  23.1300113  56.0144913  59.2128903
  22.4880113  56.4454913  59.3438903  16.9980113  70.1584913  55.5898903
  17.4650113  70.2424913  54.8578903  17.4530113  69.5804913  56.0588903
  17.1340113  70.0854913  55.5508903  15.5380113  69.1064913  66.6888903
  15.6670113  68.8264913  67.5048903  14.9280113  68.5654913  66.3798903
  15.4670113  68.9854913  66.7638903  22.1120113  66.6314913  71.7558903
  21.8760113  66.6284913  72.5958903  21.3640113  66.4834913  71.3318903
  21.9660113  66.6084913  71.8168903  16.9840113  63.6274913  60.8908903
  16.5220113  63.2354913  60.2638903  17.6840113  63.1144913  60.9828903
  17.0190113  63.4944913  60.8118903  21.4920113  59.2374913  66.2378903
  22.1700113  59.2554913  65.6888903  21.4470113  58.4014913  66.4828903
  21.5850113  59.1164913  66.1928903  18.9850113  61.7274913  60.9138903
  19.8020113  61.5404913  61.1568903  18.5080113  61.1134913  61.3098903
  19.0350113  61.6094913  61.0088903  23.1890113  67.7084913  63.5238903
  23.5370113  66.9094913  63.5538903  23.8540113  68.2124913  63.2688903
  23.3390113  67.6644913  63.4908903  23.2460113  67.1574913  59.7348903
  23.5770113  66.5134913  60.2208903  23.4860113  66.9464913  58.9238903
  23.3300113  67.0314913  59.6868903  25.2140113  61.2884913  71.0738903
  24.3660113  61.1894913  70.8958903  25.2430113  62.0334913  71.5278903
  25.0930113  61.3844913  71.1148903  19.5820113  56.8214913  60.1798903
  19.2860113  57.3224913  59.5298903  20.4490113  56.8994913  60.1228903
  19.6660113  56.9074913  60.0758903  29.7720113  54.2484913  70.1878903
  29.6140113  55.0174913  69.8058903  29.0000113  54.0284913  70.5318903
  29.6340113  54.3294913  70.1828903  22.5610113  55.9634913  62.4028903
  22.6340113  56.8234913  62.5318903  22.5230113  55.8884913  61.5348903
  22.5660113  56.0794913  62.2938903  27.2340113  58.8894913  54.7018903
  26.7840113  59.5704913  55.0088903  27.3480113  58.3854913  55.4048903
  27.1850113  58.9154913  54.8508903  15.4400113  61.3884913  63.9038903
  15.1840113  62.2194913  63.8288903  14.7760113  61.0054913  64.3208903
  15.3040113  61.4544913  63.9548903  21.1900113  68.9424913  59.2838903
  20.6110113  68.6674913  59.8758903  21.8140113  68.3334913  59.3088903
  21.1970113  68.8124913  59.3748903  18.4690113  56.2054913  64.3948903
  17.9480113  55.5774913  64.0868903  19.0600113  55.7684913  64.8658903
  18.4800113  56.0474913  64.4188903  21.7750113  58.3384913  73.6928903
  21.8920113  57.8844913  72.9568903  22.0630113  59.1364913  73.4898903
  21.8350113  58.3894913  73.5538903  16.8950113  69.7684913  59.7348903
  17.5510113  69.1934913  59.7498903  17.2840113  70.5174913  59.5138903
  17.0500113  69.7934913  59.7048903  32.6280113  58.8624913  60.9968903
  32.2820113  59.5404913  61.4228903  31.9920113  58.2644913  61.0128903
  32.4830113  58.8744913  61.0618903  17.5080113  57.9354913  72.6768903
  16.7300113  57.5454913  72.6048903  17.9990113  57.5234913  72.0858903
  17.4650113  57.8164913  72.5788903  17.7130113  68.2554913  63.2348903
  18.1360113  67.8994913  62.5608903  18.0370113  67.8334913  63.9268903
  17.8230113  68.1404913  63.2378903  24.1570113  55.5784913  71.8448903
  24.3350113  54.7694913  71.5698903  24.0140113  56.0194913  71.1058903
  24.1620113  55.5244913  71.6948903  24.7510113  60.5044913  60.6178903
  25.0380113  60.2724913  59.8278903  25.4830113  60.5834913  61.0868903
  24.9010113  60.4814913  60.5708903  25.4730113  60.8434913  55.7388903
  25.7540113  61.6314913  55.9878903  24.6970113  61.0084913  55.3758903
  25.4000113  60.9844913  55.7218903  32.3030113  57.1854913  66.3658903
  33.0600113  57.2574913  65.9378903  32.3660113  56.4124913  66.7648903
  32.4240113  57.0824913  66.3608903  14.8560113  58.4834913  70.2628903
  14.8520113  59.0704913  70.9088903  15.4500113  58.7954913  69.7058903
  14.9430113  58.6164913  70.2758903  27.1940113  68.8174913  70.8048903
  27.1600113  69.1994913  71.5888903  28.0480113  68.7754913  70.6338903
  27.3150113  68.8674913  70.8958903  24.3320113  69.0144913  55.5548903
  24.1510113  69.5594913  56.2118903  25.0980113  69.3044913  55.2538903
  24.4180113  69.1384913  55.6078903  27.8390113  56.9104913  56.6088903
  28.3790113  56.2284913  56.6848903  27.9010113  57.3084913  57.3828903
  27.9280113  56.8684913  56.7348903  15.7930113  58.0784913  59.1778903
  15.6790113  57.2144913  59.2088903  15.3180113  58.3724913  59.8478903
  15.7060113  57.9944913  59.2808903  17.9350113  70.4884913  67.3928903
  17.2370113  69.9804913  67.5188903  18.1950113  70.2834913  66.5848903
  17.8700113  70.3834913  67.2918903  25.0970113  59.2864913  57.9228903
  24.5890113  58.6244913  57.6688903  25.1490113  59.7904913  57.2128903
  25.0300113  59.2634913  57.7808903  25.0970113  56.2274913  57.8138903
  24.6420113  55.8254913  57.1878903  25.8700113  56.3824913  57.4388903
  25.1440113  56.1914913  57.6658903  23.6950113  58.5944913  62.3358903
  23.7690113  59.1624913  61.6778903  23.8160113  59.0864913  63.0458903
  23.7230113  58.7514913  62.3438903  28.9200113  68.4294913  60.7478903
  29.6210113  67.9474913  60.9368903  28.2600113  67.8604913  60.7928903
  28.9260113  68.2744913  60.7818903  19.2960113  69.3394913  69.9598903
  20.1370113  69.4024913  69.7378903  19.2590113  69.7364913  70.7358903
  19.4150113  69.4074913  70.0418903  18.3030113  54.4174913  60.6838903
  18.8390113  55.1054913  60.6738903  18.3060113  54.1434913  59.8558903
  18.3820113  54.4784913  60.5598903  21.2590113  64.8504913  64.7088903
  21.4310113  64.6404913  65.5378903  20.6040113  64.3164913  64.4928903
  21.1880113  64.7404913  64.7998903  27.4870113  58.7644913  68.2238903
  27.3920113  59.0834913  69.0298903  26.8940113  58.1254913  68.1858903
  27.3850113  58.7164913  68.3378903  22.0090113  64.7884913  67.2988903
  22.0620113  65.6354913  67.5008903  21.7240113  64.4184913  68.0358903
  21.9750113  64.8584913  67.4368903  28.1860113  65.4834913  66.4288903
  27.6720113  65.0714913  66.9998903  28.0600113  66.3274913  66.6098903
  28.0920113  65.5474913  66.5398903  28.7430113  54.7084913  61.0598903
  28.7920113  54.3904913  61.8708903  29.0660113  54.0644913  60.5668903
  28.7980113  54.5664913  61.1068903  14.8300113  69.1594913  73.5098903
  15.5860113  69.5084913  73.7678903  15.0070113  68.3064913  73.4528903
  14.9680113  69.0844913  73.5398903  31.2070113  58.9444913  69.3678903
  31.9790113  58.7194913  69.7048903  30.7320113  59.1614913  70.0678903
  31.2510113  58.9434913  69.5208903  18.7510113  58.2274913  62.3378903
  19.0230113  57.7974913  61.6298903  18.5750113  57.5914913  62.9088903
  18.7650113  58.0704913  62.3178903  31.4390113  65.9224913  56.5558903
  31.5580113  65.6354913  57.3708903  32.2460113  65.9434913  56.2258903
  31.5750113  65.8834913  56.6278903  18.5750113  65.6544913  61.8868903
  19.4260113  65.5744913  61.7138903  18.2180113  64.9724913  61.4748903
  18.6480113  65.5414913  61.7998903  16.8920113  59.3294913  65.4198903
  17.7350113  59.5494913  65.3768903  16.5030113  59.9024913  64.8888903
  16.9590113  59.4464913  65.3348903  29.3340113  62.4594913  56.1408903
  29.1140113  63.1904913  55.7188903  28.8860113  62.5104913  56.8878903
  29.2350113  62.5744913  56.1888903  20.9430113  65.6614913  60.1218903
  21.6560113  66.1564913  60.2118903  21.1650113  65.0944913  59.4958903
  21.0810113  65.6504913  60.0428903  33.5210113  57.3204913  55.5938903
  32.8590113  56.7524913  55.6168903  33.3280113  57.8324913  54.9138903
  33.3950113  57.3124913  55.4968903  15.0990113  67.3044913  63.4418903
  14.4320113  67.7924913  63.7178903  15.7790113  67.8494913  63.4708903
  15.1010113  67.4564913  63.4868903  22.7460113  61.0144913  73.5378903
  22.2620113  61.5914913  73.9798903  22.7180113  61.3094913  72.7168903
  22.6700113  61.1434913  73.4818903  33.8440113  61.6984913  68.1498903
  34.0590113  60.8984913  67.8738903  32.9940113  61.7584913  67.9608903
  33.7500113  61.5894913  68.0808903  15.1650113  63.9884913  58.5448903
  14.9800113  63.1494913  58.6968903  15.8240113  63.9524913  57.9748903
  15.2350113  63.8594913  58.4828903  31.5230113  56.8784913  57.8728903
  32.2690113  56.4714913  58.0718903  31.7860113  57.5934913  57.4478903
  31.6720113  56.9244913  57.8398903  25.4660113  69.3644913  62.4488903
  24.9430113  69.9984913  62.1558903  25.7760113  69.0004913  61.7198903
  25.4340113  69.4044913  62.2978903  15.3370113  68.1524913  58.1198903
  15.8890113  68.7214913  58.4838903  15.1050113  67.6374913  58.7848903
  15.3840113  68.1604913  58.2718903  19.5410113  67.1524913  65.2088903
  20.0080113  67.4414913  65.8868903  20.1130113  66.6744913  64.7548903
  19.6950113  67.1244913  65.2418903  27.9770113  59.1664913  62.9458903
  28.3210113  59.3184913  63.7328903  27.5240113  58.4284913  63.0588903
  27.9610113  59.0794913  63.0788903  15.1670113  66.6014913  55.7478903
  15.9230113  66.1694913  55.8058903  15.1820113  67.1334913  56.4388903
  15.2810113  66.6164913  55.8588903  16.1070113  64.8224913  63.7528903
  16.5380113  64.6934913  63.0058903  15.9020113  65.6704913  63.7268903
  16.1400113  64.9284913  63.6388903  22.4530113  58.3864913  57.4028903
  22.4510113  58.2694913  56.5378903  22.2720113  59.2344913  57.4948903
  22.4260113  58.4944913  57.2888903  20.1910113  68.3384913  62.0348903
  20.3170113  69.1814913  62.2218903  20.8590113  67.9394913  62.4308903
  20.3090113  68.4044913  62.1208903  18.3210113  61.8214913  71.8968903
  17.7850113  61.3154913  72.3648903  18.3410113  61.4314913  71.1168903
  18.2440113  61.6884913  71.8508903  18.8060113  61.2184913  57.0368903
  18.6780113  60.7704913  57.7748903  18.2240113  60.8764913  56.4848903
  18.7010113  61.1014913  57.0648903  18.9730113  63.0484913  63.6358903
  18.1920113  62.9894913  63.2528903  19.0450113  62.2964913  64.0728903
  18.8680113  62.9294913  63.6438903  19.4030113  62.7854913  67.1038903
  19.4280113  62.1104913  66.5528903  18.7570113  63.2814913  66.7918903
  19.3120113  62.7584913  66.9768903  29.2980113  60.4984913  65.4998903
  28.6360113  60.8264913  65.9628903  29.4850113  61.1324913  64.9308903
  29.2280113  60.6404913  65.4838903  25.9430113  56.4044913  68.9288903
  26.0920113  55.5794913  68.6858903  26.3220113  56.4594913  69.7128903
  26.0210113  56.2904913  69.0088903  27.4910113  58.4674913  59.0108903
  27.9810113  59.1844913  58.9338903  26.7010113  58.7284913  58.7478903
  27.4470113  58.6114913  58.9608903  17.2020113  64.1404913  72.6628903
  17.1650113  64.6414913  71.9488903  17.5330113  63.3884913  72.3678903
  17.2450113  64.1024913  72.5138903  28.8050113  66.3454913  70.9208903
  29.2890113  67.0634913  71.0188903  29.1990113  65.9184913  70.2698903
  28.9350113  66.3884913  70.8388903  23.1010113  69.1904913  72.0978903
  23.4550113  69.0124913  72.8748903  22.6650113  68.4614913  71.8988903
  23.0890113  69.0564913  72.1838903  24.0730113  59.9374913  64.7358903
  24.5530113  60.6364913  64.9438903  24.4460113  59.2904913  65.1868903
  24.1990113  59.9454913  64.8328903  26.2620113  63.1064913  57.0098903
  26.2540113  63.8284913  56.5198903  25.6230113  63.2414913  57.5868903
  26.1670113  63.2334913  57.0228903  31.2340113  66.9764913  60.9908903
  31.5900113  66.6264913  61.7058903  31.2260113  66.3154913  60.4208903
  31.2860113  66.8264913  61.0118903  27.2790113  70.0424913  64.8348903
  26.6760113  69.7464913  64.2778903  27.8240113  70.4944913  64.3258903
  27.2700113  70.0654913  64.6768903  27.2920113  66.8934913  64.2348903
  26.4950113  67.1174913  64.5088903  27.5500113  66.2994913  64.8198903
  27.2120113  66.8384913  64.3618903  20.8550113  55.4484913  56.6708903
  20.9520113  55.3414913  57.5318903  20.1470113  55.9544913  56.6058903
  20.7650113  55.5074913  56.7888903  30.5520113  64.8914913  69.0808903
  30.6070113  65.0164913  68.2188903  31.3050113  65.2114913  69.3828903
  30.6710113  64.9564913  68.9978903  31.5840113  55.1894913  72.0678903
  30.9470113  54.7894913  71.6258903  31.6100113  54.7584913  72.8258903
  31.4940113  55.0674913  72.1138903  17.9770113  63.7554913  57.9138903
  18.3010113  62.9764913  57.6918903  18.6230113  64.1234913  58.3688903
  18.1200113  63.6944913  57.9478903  26.2830113  64.6974913  68.6808903
  26.1280113  65.3074913  69.2848903  26.8170113  64.1394913  69.0868903
  26.3390113  64.7054913  68.8298903  14.9740113  55.4164913  58.8818903
  15.1030113  54.7084913  58.3898903  14.6070113  55.0984913  59.6068903
  14.9390113  55.2644913  58.9168903  24.6670113  63.0974913  59.3388903
  24.7260113  63.7474913  59.9178903  24.4780113  62.4014913  59.8298903
  24.6480113  63.0904913  59.4968903  29.8930113  67.4264913  65.2078903
  29.4140113  67.7244913  64.5418903  29.5370113  66.6504913  65.3858903
  29.7700113  67.3554913  65.1358903  19.1630113  57.6144913  55.8508903
  18.6520113  57.6674913  55.1448903  19.9470113  57.8544913  55.5548903
  19.2030113  57.6574913  55.7028903  23.8900113  65.1444913  63.7698903
  23.0430113  64.9504913  63.8508903  24.2140113  64.9794913  64.5628903
  23.8120113  65.0914913  63.8988903  17.7380113  64.8374913  66.0858903
  18.4600113  65.3254913  66.0488903  17.4680113  64.8074913  65.2568903
  17.8050113  64.9054913  65.9578903  20.9680113  60.0084913  62.8208903
  21.8140113  59.8184913  62.9188903  20.5980113  59.2314913  62.6828903
  21.0380113  59.8654913  62.8148903  15.7890113  61.3464913  59.4758903
  16.2780113  61.0544913  60.1368903  15.9180113  60.7534913  58.8488903
  15.8800113  61.2154913  59.4808903  30.8240113  64.3684913  66.3268903
  30.8170113  63.5924913  66.7248903  29.9830113  64.6024913  66.3198903
  30.6990113  64.2884913  66.3848903  20.3140113  62.7804913  54.9618903
  19.7040113  62.3754913  55.4358903  19.9280113  62.8984913  54.1888903
  20.1670113  62.7374913  54.9178903  17.1330113  65.8894913  70.3638903
  16.7120113  65.3714913  69.8028903  16.7810113  66.6754913  70.2208903
  17.0190113  65.9294913  70.2598903  32.0800113  64.4394913  63.7638903
  31.7940113  64.8404913  64.4838903  32.9400113  64.3774913  63.8908903
  32.1650113  64.4894913  63.8888903  21.7690113  61.2414913  57.6718903
  22.0410113  62.0674913  57.7388903  20.9060113  61.3164913  57.5758903
  21.6820113  61.3744913  57.6668903  29.7420113  58.3634913  72.3038903
  29.2170113  58.8224913  72.8278903  29.3810113  57.5684913  72.2978903
  29.6110113  58.3134913  72.3798903  15.2490113  57.2114913  64.2078903
  15.2930113  57.5554913  63.4068903  16.0040113  57.4484913  64.5748903
  15.3670113  57.2974913  64.1438903  33.2110113  70.0724913  64.2928903
  33.5010113  70.3294913  63.5118903  33.9060113  70.1684913  64.8118903
  33.3570113  70.1244913  64.2538903  28.2340113  61.9324913  72.3798903
  28.3070113  62.0364913  73.2428903  27.6000113  62.4904913  72.1588903
  28.1510113  62.0304913  72.4748903  30.5020113  62.2514913  70.7448903
  30.8210113  63.0374913  70.9478903  30.1320113  61.9814913  71.4878903
  30.4950113  62.3274913  70.8848903  29.8160113  68.6754913  56.2748903
  30.1500113  67.8694913  56.3098903  29.0610113  68.6034913  56.7048903
  29.7540113  68.5454913  56.3438903  30.2980113  60.5094913  61.9338903
  29.5530113  60.1864913  62.2518903  30.3000113  61.3354913  62.2138903
  30.1880113  60.5834913  62.0218903  33.2000113  62.7934913  73.4798903
  33.1480113  62.4524913  72.6788903  33.9370113  63.2604913  73.4578903
  33.3010113  62.8124913  73.3578903  32.7380113  66.4694913  69.6858903
  33.3660113  65.9204913  69.4298903  32.6770113  67.0344913  69.0238903
  32.8220113  66.4724913  69.5498903  27.1900113  66.5504913  55.6778903
  27.8740113  66.0364913  55.5088903  26.7730113  66.5964913  54.9128903
  27.2290113  66.4814913  55.5398903  21.8720113  67.7004913  66.9818903
  21.5740113  68.2924913  67.5488903  21.9270113  68.1424913  66.2328903
  21.8360113  67.8534913  66.9548903  19.8510113  66.6504913  70.3798903
  19.0450113  66.3604913  70.5468903  19.7620113  67.5184913  70.3858903
  19.7190113  66.7354913  70.4048903  29.2100113  56.8394913  69.3948903
  29.9540113  57.2914913  69.3318903  28.6440113  57.3094913  68.9258903
  29.2370113  56.9764913  69.3168903  24.3880113  64.1234913  66.4728903
  24.8640113  64.4974913  67.1008903  23.5650113  64.2574913  66.7318903
  24.3370113  64.1984913  66.6038903  21.0980113  59.7264913  69.2138903
  21.2590113  58.9824913  69.6408903  21.0530113  59.4774913  68.3788903
  21.1150113  59.5794913  69.1538903  30.4950113  54.8194913  67.0648903
  30.2150113  55.6444913  67.0208903  31.2110113  54.8724913  67.5608903
  30.5600113  54.9494913  67.1318903  22.8500113  55.5344913  69.0938903
  23.5550113  55.8544913  68.6918903  23.0910113  54.7274913  69.3208903
  22.9890113  55.4624913  69.0678903  21.8350113  69.7444913  65.0898903
  21.2110113  70.3264913  64.9078903  22.0830113  69.4584913  64.3038903
  21.7790113  69.7884913  64.9468903  26.1440113  66.3784913  72.0788903
  26.9010113  66.6644913  71.7528903  25.5970113  66.4304913  71.4008903
  26.1750113  66.4284913  71.9298903  30.0530113  68.9284913  70.5828903
  30.3990113  69.1984913  71.3368903  30.3470113  69.5104913  70.0028903
  30.1480113  69.0544913  70.6088903  31.9160113  61.0744913  55.9218903
  32.2940113  61.7514913  55.5218903  31.0740113  61.2984913  55.9528903
  31.8470113  61.2074913  55.8668903  23.4290113  64.5204913  55.0048903
  22.6240113  64.3434913  54.7198903  23.3960113  65.3714913  55.1968903
  23.3050113  64.6194913  54.9918903  19.3590113  60.5874913  65.1548903
  19.7990113  60.4844913  64.4088903  19.9040113  60.2744913  65.7598903
  19.5040113  60.5264913  65.1338903  27.3750113  59.6894913  70.7468903
  26.7270113  60.1594913  71.0948903  27.9400113  59.6004913  71.4058903
  27.3630113  59.7454913  70.8958903  27.0630113  61.2264913  67.0448903
  27.3650113  61.6464913  67.7478903  27.0990113  60.3864913  67.2768903
  27.1130113  61.1644913  67.1828903  29.6110113  60.6734913  59.2968903
  29.8180113  60.4724913  60.1208903  30.3670113  60.9414913  58.9548903
  29.7530113  60.6834913  59.3678903  22.9060113  55.5724913  65.2018903
  22.0800113  55.4234913  65.4388903  22.8660113  55.6074913  64.3308903
  22.7780113  55.5554913  65.1078903  30.6330113  56.7564913  60.7708903
  29.9190113  56.2854913  60.9418903  30.4710113  57.0974913  59.9848903
  30.5040113  56.7374913  60.6798903  31.0760113  64.7004913  59.1508903
  31.5520113  63.9714913  59.1028903  30.2550113  64.4144913  59.0748903
  31.0250113  64.5504913  59.1318903  24.5470113  66.6124913  69.9898903
  23.7520113  66.5484913  70.3408903  24.6180113  67.4594913  69.7948903
  24.4400113  66.7274913  70.0128903  15.4710113  55.9704913  71.2368903
  15.3310113  56.7654913  70.9058903  14.6850113  55.7274913  71.5258903
  15.3340113  56.0524913  71.2308903  18.5350113  58.7144913  58.4618903
  18.6610113  58.3854913  57.6638903  17.7230113  58.4654913  58.6608903
  18.4340113  58.6294913  58.3738903  27.2920113  65.8674913  61.5058903
  27.3680113  66.2084913  62.3048903  27.4610113  65.0204913  61.6268903
  27.3280113  65.7924913  61.6418903  24.8140113  65.1414913  61.0708903
  24.5160113  64.8264913  61.8278903  25.5090113  65.6144913  61.3058903
  24.8730113  65.1644913  61.2178903  25.0360113  69.2594913  69.0978903
  25.7230113  69.1454913  69.6228903  25.1700113  70.0504913  68.7538903
  25.1570113  69.3594913  69.1248903  33.2120113  61.8684913  70.9088903
  32.3570113  61.7464913  71.0348903  33.3650113  61.4734913  70.1458903
  33.1080113  61.7914913  70.8148903  27.7250113  62.5334913  69.4848903
  27.4700113  61.8144913  69.9068903  28.5460113  62.6494913  69.7548903
  27.8090113  62.4444913  69.5868903  25.6590113  63.7234913  72.6718903
  25.9820113  64.4094913  72.2398903  24.9550113  64.0464913  73.0738903
  25.6020113  63.8724913  72.6668903  25.4440113  67.1874913  66.5308903
  24.7500113  67.5894913  66.8738903  26.1210113  67.6204913  66.8698903
  25.4410113  67.3104913  66.6318903  30.8210113  69.7804913  73.1108903
  31.5970113  69.3904913  73.1938903  30.3520113  69.4444913  73.7658903
  30.8660113  69.6734913  73.2198903  18.5120113  60.7254913  68.8778903
  18.8870113  61.3444913  68.3908903  19.1860113  60.2514913  69.1628903
  18.6670113  60.7474913  68.8478903  16.2870113  59.1734913  68.1528903
  16.3640113  59.0044913  67.2998903  17.0330113  59.5794913  68.3498903
  16.4080113  59.2084913  68.0558903  31.8460113  61.8134913  58.5928903
  31.9490113  61.7554913  57.7288903  32.5870113  61.4814913  58.9108903
  31.9710113  61.7564913  58.5118903  18.8410113  56.5834913  70.5638903
  18.7600113  55.7394913  70.7698903  18.5270113  56.6274913  69.7508903
  18.7830113  56.4654913  70.4738903  25.7660113  68.7784913  59.6998903
  25.5610113  69.6114913  59.5408903  24.9910113  68.3964913  59.8218903
  25.6210113  68.8454913  59.6948903  30.9480113  61.9594913  67.9488903
  30.9460113  61.0964913  68.0728903  31.0150113  62.2834913  68.7558903
  30.9580113  61.8794913  68.0858903  15.6840113  64.3994913  68.3768903
  16.0040113  64.6184913  67.5958903  15.5840113  63.5344913  68.3218903
  15.7160113  64.3044913  68.2538903  17.1400113  60.3354913  54.9948903
  16.4680113  60.3494913  55.5508903  17.2350113  59.4874913  54.8108903
  17.0550113  60.2124913  55.0498903  26.8270113  56.7594913  71.7308903
  26.9190113  57.4714913  72.2248903  26.1900113  56.3144913  72.1278903
  26.7460113  56.7984913  71.8628903  25.8210113  56.9494913  62.5848903
  25.1210113  57.4674913  62.5288903  25.8590113  56.5694913  61.8008903
  25.7230113  56.9704913  62.4608903  21.1280113  69.0404913  56.1088903
  21.5690113  69.1204913  56.8568903  20.3230113  68.8244913  56.3668903
  21.0740113  69.0204913  56.2578903  29.4190113  57.4654913  65.3848903
  30.2740113  57.5644913  65.5298903  29.0500113  58.0184913  65.9498903
  29.4910113  57.5624913  65.4898903  20.4470113  63.6914913  69.7618903
  20.0510113  64.4654913  69.8368903  20.0410113  63.3184913  69.0858903
  20.3290113  63.7504913  69.6728903  29.7230113  62.7454913  63.8758903
  30.3890113  63.2864913  64.0358903  29.3780113  63.0564913  63.1368903
  29.7700113  62.8714913  63.7908903  18.4570113  68.1104913  56.7098903
  18.2130113  67.8034913  57.4898903  18.4240113  67.4074913  56.1938903
  18.4160113  67.9614913  56.7488903  21.2760113  66.3554913  55.4528903
  20.4580113  66.0874913  55.5928903  21.2480113  67.2074913  55.6378903
  21.1510113  66.4424913  55.5008903  20.8760113  56.6684913  67.2118903
  20.0120113  56.7524913  67.2918903  21.0960113  56.1544913  67.8808903
  20.7810113  56.6054913  67.3228903  32.8940113  55.3034913  68.5408903
  32.8420113  55.2594913  69.4108903  33.5810113  54.8004913  68.3508903
  32.9880113  55.2234913  68.6408903  24.9790113  57.4164913  65.5858903
  24.2420113  56.9624913  65.6988903  25.5500113  57.0144913  66.1088903
  24.9540113  57.2894913  65.6798903  27.7110113  68.2644913  67.3738903
  27.9170113  68.5654913  68.1658903  27.6500113  68.9864913  66.8888903
  27.7320113  68.4154913  67.4188903  22.4820113  61.7454913  70.7898903
  22.1600113  61.1694913  70.2198903  22.1230113  62.5004913  70.5438903
  22.3820113  61.7714913  70.6698903  23.2780113  54.9974913  55.4168903
  23.3560113  55.2444913  54.5838903  22.5350113  55.3744913  55.6748903
  23.1800113  55.0894913  55.3318903  32.5230113  66.9034913  66.8318903
  32.4910113  66.0414913  66.6968903  31.8300113  67.2054913  66.3978903
  32.4160113  66.8204913  66.7478903  30.6280113  70.1634913  65.6288903
  31.1550113  70.0804913  64.9378903  30.2370113  69.3854913  65.6828903
  30.6480113  70.0364913  65.5348903  18.0960113  56.7514913  67.8598903
  17.7530113  55.9844913  67.6258903  17.4010113  57.2754913  67.9238903
  17.9430113  56.7154913  67.8348903  27.1420113  55.6074913  64.8368903
  27.8120113  56.1514913  64.9638903  26.6390113  56.0314913  64.2638903
  27.1670113  55.7504913  64.7708903  26.5010113  61.4154913  62.3298903
  27.0520113  60.8084913  62.6298903  26.0760113  61.6784913  63.0448903
  26.5200113  61.3644913  62.4788903  16.7490113  60.0654913  61.8158903
  16.3810113  60.3674913  62.5468903  17.2830113  59.4364913  62.0998903
  16.7730113  60.0174913  61.9658903  16.4370113  68.4734913  69.3268903
  15.8630113  68.8894913  69.8358903  17.1700113  68.9384913  69.4218903
  16.4610113  68.6034913  69.4158903  28.4710113  63.2464913  58.8918903
  28.5390113  62.3964913  59.0728903  27.6480113  63.3324913  58.6138903
  28.3590113  63.1334913  58.8778903  22.3900113  64.1374913  57.8298903
  22.4900113  64.2764913  56.9748903  23.2080113  64.0774913  58.1258903
  22.5250113  64.1484913  57.7468903  31.7450113  64.6194913  72.0428903
  32.3790113  64.4494913  72.6168903  32.1620113  65.0224913  71.3908903
  31.9000113  64.6544913  72.0318903  27.6250113  68.4664913  57.6318903
  27.3740113  68.3384913  58.4578903  27.3080113  67.7714913  57.2108903
  27.5410113  68.3454913  57.6918903  32.3700113  59.1834913  72.7808903
  32.1740113  59.8274913  73.3358903  31.6480113  58.6934913  72.7728903
  32.2350113  59.2064913  72.8618903  32.2690113  60.1244913  65.7518903
  31.4360113  60.3744913  65.6798903  32.2130113  59.2844913  65.9808903
  32.1380113  60.0374913  65.7748903  21.5290113  57.1124913  70.9458903
  21.7630113  56.5364913  70.3328903  20.6870113  56.9314913  71.0868903
  21.4390113  57.0004913  70.8758903  29.1560113  64.7304913  73.3978903
  30.0270113  64.6944913  73.3618903  28.9370113  65.1504913  72.6658903
  29.2530113  64.7864913  73.2848903  24.5110113  66.6744913  57.0618903
  25.2280113  66.3274913  56.7058903  24.4770113  67.4744913  56.7138903
  24.6120113  66.7414913  56.9578903  25.9200113  55.3154913  41.3006493
  25.6750113  55.8034913  40.6206493  26.7830113  55.2424913  41.2006493
  26.0110113  55.3764913  41.1856493  25.7290113  62.2314913  45.9716493
  25.2050113  62.8274913  46.3346493  26.1260113  61.8634913  46.6556493
  25.7100113  62.2654913  46.1266493  15.5980113  66.3714913  41.4276493
  15.1570113  66.4894913  42.1706493  15.3150113  65.5964913  41.1426493
  15.4910113  66.2744913  41.4956493  31.8730113  69.6724913  38.9426493
  32.5740113  69.1534913  38.9386493  31.2860113  69.2274913  38.4736493
  31.8900113  69.5294913  38.8726493  15.3410113  60.1634913  37.9346493
  14.5630113  60.3254913  37.5746493  15.3800113  59.2924913  37.9566493
  15.2320113  60.0584913  37.8846493  18.4800113  65.4264913  36.6066493
  18.0880113  65.0554913  35.9206493  18.4000113  64.8284913  37.2356493
  18.4100113  65.2834913  36.5976493  28.4000113  63.2984913  42.6476493
  28.4800113  63.3024913  41.7786493  27.8160113  62.6664913  42.7966493
  28.3250113  63.2054913  42.5416493  18.1070113  67.0674913  40.5066493
  18.7150113  66.8974913  41.1096493  17.3560113  66.9274913  40.9276493
  18.0860113  67.0214913  40.6576493  22.3890113  56.4024913  40.4556493
  22.3190113  57.0794913  39.9096493  23.1300113  56.0144913  40.2066493
  22.4880113  56.4454913  40.3376493  16.9980113  70.1584913  36.5836493
  17.4650113  70.2424913  35.8516493  17.4530113  69.5804913  37.0526493
  17.1340113  70.0854913  36.5446493  15.5380113  69.1064913  47.6826493
  15.6670113  68.8264913  48.4986493  14.9280113  68.5654913  47.3736493
  15.4670113  68.9854913  47.7576493  22.1120113  66.6314913  52.7496493
  21.8760113  66.6284913  53.5896493  21.3640113  66.4834913  52.3256493
  21.9660113  66.6084913  52.8106493  16.9840113  63.6274913  41.8846493
  16.5220113  63.2354913  41.2576493  17.6840113  63.1144913  41.9766493
  17.0190113  63.4944913  41.8056493  21.4920113  59.2374913  47.2316493
  22.1700113  59.2554913  46.6826493  21.4470113  58.4014913  47.4766493
  21.5850113  59.1164913  47.1866493  18.9850113  61.7274913  41.9076493
  19.8020113  61.5404913  42.1506493  18.5080113  61.1134913  42.3036493
  19.0350113  61.6094913  42.0026493  23.1890113  67.7084913  44.5176493
  23.5370113  66.9094913  44.5476493  23.8540113  68.2124913  44.2626493
  23.3390113  67.6644913  44.4846493  23.2460113  67.1574913  40.7286493
  23.5770113  66.5134913  41.2146493  23.4860113  66.9464913  39.9176493
  23.3300113  67.0314913  40.6806493  25.2140113  61.2884913  52.0676493
  24.3660113  61.1894913  51.8896493  25.2430113  62.0334913  52.5216493
  25.0930113  61.3844913  52.1086493  19.5820113  56.8214913  41.1736493
  19.2860113  57.3224913  40.5236493  20.4490113  56.8994913  41.1166493
  19.6660113  56.9074913  41.0696493  29.7720113  54.2484913  51.1816493
  29.6140113  55.0174913  50.7996493  29.0000113  54.0284913  51.5256493
  29.6340113  54.3294913  51.1766493  22.5610113  55.9634913  43.3966493
  22.6340113  56.8234913  43.5256493  22.5230113  55.8884913  42.5286493
  22.5660113  56.0794913  43.2876493  27.2340113  58.8894913  35.6956493
  26.7840113  59.5704913  36.0026493  27.3480113  58.3854913  36.3986493
  27.1850113  58.9154913  35.8446493  15.4400113  61.3884913  44.8976493
  15.1840113  62.2194913  44.8226493  14.7760113  61.0054913  45.3146493
  15.3040113  61.4544913  44.9486493  21.1900113  68.9424913  40.2776493
  20.6110113  68.6674913  40.8696493  21.8140113  68.3334913  40.3026493
  21.1970113  68.8124913  40.3686493  18.4690113  56.2054913  45.3886493
  17.9480113  55.5774913  45.0806493  19.0600113  55.7684913  45.8596493
  18.4800113  56.0474913  45.4126493  21.7750113  58.3384913  54.6866493
  21.8920113  57.8844913  53.9506493  22.0630113  59.1364913  54.4836493
  21.8350113  58.3894913  54.5476493  16.8950113  69.7684913  40.7286493
  17.5510113  69.1934913  40.7436493  17.2840113  70.5174913  40.5076493
  17.0500113  69.7934913  40.6986493  32.6280113  58.8624913  41.9906493
  32.2820113  59.5404913  42.4166493  31.9920113  58.2644913  42.0066493
  32.4830113  58.8744913  42.0556493  17.5080113  57.9354913  53.6706493
  16.7300113  57.5454913  53.5986493  17.9990113  57.5234913  53.0796493
  17.4650113  57.8164913  53.5726493  17.7130113  68.2554913  44.2286493
  18.1360113  67.8994913  43.5546493  18.0370113  67.8334913  44.9206493
  17.8230113  68.1404913  44.2316493  24.7510113  60.5044913  41.6116493
  25.0380113  60.2724913  40.8216493  25.4830113  60.5834913  42.0806493
  24.9010113  60.4814913  41.5646493  25.4730113  60.8434913  36.7326493
  25.7540113  61.6314913  36.9816493  24.6970113  61.0084913  36.3696493
  25.4000113  60.9844913  36.7156493  32.3030113  57.1854913  47.3596493
  33.0600113  57.2574913  46.9316493  32.3660113  56.4124913  47.7586493
  32.4240113  57.0824913  47.3546493  14.8560113  58.4834913  51.2566493
  14.8520113  59.0704913  51.9026493  15.4500113  58.7954913  50.6996493
  14.9430113  58.6164913  51.2696493  27.1940113  68.8174913  51.7986493
  27.1600113  69.1994913  52.5826493  28.0480113  68.7754913  51.6276493
  27.3150113  68.8674913  51.8896493  24.3320113  69.0144913  36.5486493
  24.1510113  69.5594913  37.2056493  25.0980113  69.3044913  36.2476493
  24.4180113  69.1384913  36.6016493  27.8390113  56.9104913  37.6026493
  28.3790113  56.2284913  37.6786493  27.9010113  57.3084913  38.3766493
  27.9280113  56.8684913  37.7286493  15.7930113  58.0784913  40.1716493
  15.6790113  57.2144913  40.2026493  15.3180113  58.3724913  40.8416493
  15.7060113  57.9944913  40.2746493  17.9350113  70.4884913  48.3866493
  17.2370113  69.9804913  48.5126493  18.1950113  70.2834913  47.5786493
  17.8700113  70.3834913  48.2856493  25.0970113  59.2864913  38.9166493
  24.5890113  58.6244913  38.6626493  25.1490113  59.7904913  38.2066493
  25.0300113  59.2634913  38.7746493  25.0970113  56.2274913  38.8076493
  24.6420113  55.8254913  38.1816493  25.8700113  56.3824913  38.4326493
  25.1440113  56.1914913  38.6596493  23.6950113  58.5944913  43.3296493
  23.7690113  59.1624913  42.6716493  23.8160113  59.0864913  44.0396493
  23.7230113  58.7514913  43.3376493  28.9200113  68.4294913  41.7416493
  29.6210113  67.9474913  41.9306493  28.2600113  67.8604913  41.7866493
  28.9260113  68.2744913  41.7756493  19.2960113  69.3394913  50.9536493
  20.1370113  69.4024913  50.7316493  19.2590113  69.7364913  51.7296493
  19.4150113  69.4074913  51.0356493  18.3030113  54.4174913  41.6776493
  18.8390113  55.1054913  41.6676493  18.3060113  54.1434913  40.8496493
  18.3820113  54.4784913  41.5536493  21.2590113  64.8504913  45.7026493
  21.4310113  64.6404913  46.5316493  20.6040113  64.3164913  45.4866493
  21.1880113  64.7404913  45.7936493  27.4870113  58.7644913  49.2176493
  27.3920113  59.0834913  50.0236493  26.8940113  58.1254913  49.1796493
  27.3850113  58.7164913  49.3316493  22.0090113  64.7884913  48.2926493
  22.0620113  65.6354913  48.4946493  21.7240113  64.4184913  49.0296493
  21.9750113  64.8584913  48.4306493  28.1860113  65.4834913  47.4226493
  27.6720113  65.0714913  47.9936493  28.0600113  66.3274913  47.6036493
  28.0920113  65.5474913  47.5336493  28.7430113  54.7084913  42.0536493
  28.7920113  54.3904913  42.8646493  29.0660113  54.0644913  41.5606493
  28.7980113  54.5664913  42.1006493  14.8300113  69.1594913  54.5036493
  15.5860113  69.5084913  54.7616493  15.0070113  68.3064913  54.4466493
  14.9680113  69.0844913  54.5336493  31.2070113  58.9444913  50.3616493
  31.9790113  58.7194913  50.6986493  30.7320113  59.1614913  51.0616493
  31.2510113  58.9434913  50.5146493  18.7510113  58.2274913  43.3316493
  19.0230113  57.7974913  42.6236493  18.5750113  57.5914913  43.9026493
  18.7650113  58.0704913  43.3116493  31.4390113  65.9224913  37.5496493
  31.5580113  65.6354913  38.3646493  32.2460113  65.9434913  37.2196493
  31.5750113  65.8834913  37.6216493  18.5750113  65.6544913  42.8806493
  19.4260113  65.5744913  42.7076493  18.2180113  64.9724913  42.4686493
  18.6480113  65.5414913  42.7936493  16.8920113  59.3294913  46.4136493
  17.7350113  59.5494913  46.3706493  16.5030113  59.9024913  45.8826493
  16.9590113  59.4464913  46.3286493  29.3340113  62.4594913  37.1346493
  29.1140113  63.1904913  36.7126493  28.8860113  62.5104913  37.8816493
  29.2350113  62.5744913  37.1826493  20.9430113  65.6614913  41.1156493
  21.6560113  66.1564913  41.2056493  21.1650113  65.0944913  40.4896493
  21.0810113  65.6504913  41.0366493  33.5210113  57.3204913  36.5876493
  32.8590113  56.7524913  36.6106493  33.3280113  57.8324913  35.9076493
  33.3950113  57.3124913  36.4906493  15.0990113  67.3044913  44.4356493
  14.4320113  67.7924913  44.7116493  15.7790113  67.8494913  44.4646493
  15.1010113  67.4564913  44.4806493  22.7460113  61.0144913  54.5316493
  22.2620113  61.5914913  54.9736493  22.7180113  61.3094913  53.7106493
  22.6700113  61.1434913  54.4756493  33.8440113  61.6984913  49.1436493
  34.0590113  60.8984913  48.8676493  32.9940113  61.7584913  48.9546493
  33.7500113  61.5894913  49.0746493  15.1650113  63.9884913  39.5386493
  14.9800113  63.1494913  39.6906493  15.8240113  63.9524913  38.9686493
  15.2350113  63.8594913  39.4766493  25.4660113  69.3644913  43.4426493
  24.9430113  69.9984913  43.1496493  25.7760113  69.0004913  42.7136493
  25.4340113  69.4044913  43.2916493  15.3370113  68.1524913  39.1136493
  15.8890113  68.7214913  39.4776493  15.1050113  67.6374913  39.7786493
  15.3840113  68.1604913  39.2656493  19.5410113  67.1524913  46.2026493
  20.0080113  67.4414913  46.8806493  20.1130113  66.6744913  45.7486493
  19.6950113  67.1244913  46.2356493  27.9770113  59.1664913  43.9396493
  28.3210113  59.3184913  44.7266493  27.5240113  58.4284913  44.0526493
  27.9610113  59.0794913  44.0726493  15.1670113  66.6014913  36.7416493
  15.9230113  66.1694913  36.7996493  15.1820113  67.1334913  37.4326493
  15.2810113  66.6164913  36.8526493  16.1070113  64.8224913  44.7466493
  16.5380113  64.6934913  43.9996493  15.9020113  65.6704913  44.7206493
  16.1400113  64.9284913  44.6326493  22.4530113  58.3864913  38.3966493
  22.4510113  58.2694913  37.5316493  22.2720113  59.2344913  38.4886493
  22.4260113  58.4944913  38.2826493  20.1910113  68.3384913  43.0286493
  20.3170113  69.1814913  43.2156493  20.8590113  67.9394913  43.4246493
  20.3090113  68.4044913  43.1146493  18.3210113  61.8214913  52.8906493
  17.7850113  61.3154913  53.3586493  18.3410113  61.4314913  52.1106493
  18.2440113  61.6884913  52.8446493  18.8060113  61.2184913  38.0306493
  18.6780113  60.7704913  38.7686493  18.2240113  60.8764913  37.4786493
  18.7010113  61.1014913  38.0586493  18.9730113  63.0484913  44.6296493
  18.1920113  62.9894913  44.2466493  19.0450113  62.2964913  45.0666493
  18.8680113  62.9294913  44.6376493  19.4030113  62.7854913  48.0976493
  19.4280113  62.1104913  47.5466493  18.7570113  63.2814913  47.7856493
  19.3120113  62.7584913  47.9706493  29.2980113  60.4984913  46.4936493
  28.6360113  60.8264913  46.9566493  29.4850113  61.1324913  45.9246493
  29.2280113  60.6404913  46.4776493  25.9430113  56.4044913  49.9226493
  26.0920113  55.5794913  49.6796493  26.3220113  56.4594913  50.7066493
  26.0210113  56.2904913  50.0026493  27.4910113  58.4674913  40.0046493
  27.9810113  59.1844913  39.9276493  26.7010113  58.7284913  39.7416493
  27.4470113  58.6114913  39.9546493  17.2020113  64.1404913  53.6566493
  17.1650113  64.6414913  52.9426493  17.5330113  63.3884913  53.3616493
  17.2450113  64.1024913  53.5076493  28.8050113  66.3454913  51.9146493
  29.2890113  67.0634913  52.0126493  29.1990113  65.9184913  51.2636493
  28.9350113  66.3884913  51.8326493  23.1010113  69.1904913  53.0916493
  23.4550113  69.0124913  53.8686493  22.6650113  68.4614913  52.8926493
  23.0890113  69.0564913  53.1776493  24.0730113  59.9374913  45.7296493
  24.5530113  60.6364913  45.9376493  24.4460113  59.2904913  46.1806493
  24.1990113  59.9454913  45.8266493  26.2620113  63.1064913  38.0036493
  26.2540113  63.8284913  37.5136493  25.6230113  63.2414913  38.5806493
  26.1670113  63.2334913  38.0166493  31.2340113  66.9764913  41.9846493
  31.5900113  66.6264913  42.6996493  31.2260113  66.3154913  41.4146493
  31.2860113  66.8264913  42.0056493  27.2790113  70.0424913  45.8286493
  26.6760113  69.7464913  45.2716493  27.8240113  70.4944913  45.3196493
  27.2700113  70.0654913  45.6706493  27.2920113  66.8934913  45.2286493
  26.4950113  67.1174913  45.5026493  27.5500113  66.2994913  45.8136493
  27.2120113  66.8384913  45.3556493  20.8550113  55.4484913  37.6646493
  20.9520113  55.3414913  38.5256493  20.1470113  55.9544913  37.5996493
  20.7650113  55.5074913  37.7826493  30.5520113  64.8914913  50.0746493
  30.6070113  65.0164913  49.2126493  31.3050113  65.2114913  50.3766493
  30.6710113  64.9564913  49.9916493  31.5840113  55.1894913  53.0616493
  30.9470113  54.7894913  52.6196493  31.6100113  54.7584913  53.8196493
  31.4940113  55.0674913  53.1076493  17.9770113  63.7554913  38.9076493
  18.3010113  62.9764913  38.6856493  18.6230113  64.1234913  39.3626493
  18.1200113  63.6944913  38.9416493  26.2830113  64.6974913  49.6746493
  26.1280113  65.3074913  50.2786493  26.8170113  64.1394913  50.0806493
  26.3390113  64.7054913  49.8236493  14.9740113  55.4164913  39.8756493
  15.1030113  54.7084913  39.3836493  14.6070113  55.0984913  40.6006493
  14.9390113  55.2644913  39.9106493  24.6670113  63.0974913  40.3326493
  24.7260113  63.7474913  40.9116493  24.4780113  62.4014913  40.8236493
  24.6480113  63.0904913  40.4906493  29.8930113  67.4264913  46.2016493
  29.4140113  67.7244913  45.5356493  29.5370113  66.6504913  46.3796493
  29.7700113  67.3554913  46.1296493  19.1630113  57.6144913  36.8446493
  18.6520113  57.6674913  36.1386493  19.9470113  57.8544913  36.5486493
  19.2030113  57.6574913  36.6966493  23.8900113  65.1444913  44.7636493
  23.0430113  64.9504913  44.8446493  24.2140113  64.9794913  45.5566493
  23.8120113  65.0914913  44.8926493  17.7380113  64.8374913  47.0796493
  18.4600113  65.3254913  47.0426493  17.4680113  64.8074913  46.2506493
  17.8050113  64.9054913  46.9516493  20.9680113  60.0084913  43.8146493
  21.8140113  59.8184913  43.9126493  20.5980113  59.2314913  43.6766493
  21.0380113  59.8654913  43.8086493  15.7890113  61.3464913  40.4696493
  16.2780113  61.0544913  41.1306493  15.9180113  60.7534913  39.8426493
  15.8800113  61.2154913  40.4746493  30.8240113  64.3684913  47.3206493
  30.8170113  63.5924913  47.7186493  29.9830113  64.6024913  47.3136493
  30.6990113  64.2884913  47.3786493  20.3140113  62.7804913  35.9556493
  19.7040113  62.3754913  36.4296493  19.9280113  62.8984913  35.1826493
  20.1670113  62.7374913  35.9116493  17.1330113  65.8894913  51.3576493
  16.7120113  65.3714913  50.7966493  16.7810113  66.6754913  51.2146493
  17.0190113  65.9294913  51.2536493  32.0800113  64.4394913  44.7576493
  31.7940113  64.8404913  45.4776493  32.9400113  64.3774913  44.8846493
  32.1650113  64.4894913  44.8826493  21.7690113  61.2414913  38.6656493
  22.0410113  62.0674913  38.7326493  20.9060113  61.3164913  38.5696493
  21.6820113  61.3744913  38.6606493  29.7420113  58.3634913  53.2976493
  29.2170113  58.8224913  53.8216493  29.3810113  57.5684913  53.2916493
  29.6110113  58.3134913  53.3736493  15.2490113  57.2114913  45.2016493
  15.2930113  57.5554913  44.4006493  16.0040113  57.4484913  45.5686493
  15.3670113  57.2974913  45.1376493  33.2110113  70.0724913  45.2866493
  33.5010113  70.3294913  44.5056493  33.9060113  70.1684913  45.8056493
  33.3570113  70.1244913  45.2476493  28.2340113  61.9324913  53.3736493
  28.3070113  62.0364913  54.2366493  27.6000113  62.4904913  53.1526493
  28.1510113  62.0304913  53.4686493  30.5020113  62.2514913  51.7386493
  30.8210113  63.0374913  51.9416493  30.1320113  61.9814913  52.4816493
  30.4950113  62.3274913  51.8786493  29.8160113  68.6754913  37.2686493
  30.1500113  67.8694913  37.3036493  29.0610113  68.6034913  37.6986493
  29.7540113  68.5454913  37.3376493  30.2980113  60.5094913  42.9276493
  29.5530113  60.1864913  43.2456493  30.3000113  61.3354913  43.2076493
  30.1880113  60.5834913  43.0156493  33.2000113  62.7934913  54.4736493
  33.1480113  62.4524913  53.6726493  33.9370113  63.2604913  54.4516493
  33.3010113  62.8124913  54.3516493  32.7380113  66.4694913  50.6796493
  33.3660113  65.9204913  50.4236493  32.6770113  67.0344913  50.0176493
  32.8220113  66.4724913  50.5436493  27.1900113  66.5504913  36.6716493
  27.8740113  66.0364913  36.5026493  26.7730113  66.5964913  35.9066493
  27.2290113  66.4814913  36.5336493  21.8720113  67.7004913  47.9756493
  21.5740113  68.2924913  48.5426493  21.9270113  68.1424913  47.2266493
  21.8360113  67.8534913  47.9486493  19.8510113  66.6504913  51.3736493
  19.0450113  66.3604913  51.5406493  19.7620113  67.5184913  51.3796493
  19.7190113  66.7354913  51.3986493  29.2100113  56.8394913  50.3886493
  29.9540113  57.2914913  50.3256493  28.6440113  57.3094913  49.9196493
  29.2370113  56.9764913  50.3106493  24.3880113  64.1234913  47.4666493
  24.8640113  64.4974913  48.0946493  23.5650113  64.2574913  47.7256493
  24.3370113  64.1984913  47.5976493  21.0980113  59.7264913  50.2076493
  21.2590113  58.9824913  50.6346493  21.0530113  59.4774913  49.3726493
  21.1150113  59.5794913  50.1476493  30.4950113  54.8194913  48.0586493
  30.2150113  55.6444913  48.0146493  31.2110113  54.8724913  48.5546493
  30.5600113  54.9494913  48.1256493  22.8500113  55.5344913  50.0876493
  23.5550113  55.8544913  49.6856493  23.0910113  54.7274913  50.3146493
  22.9890113  55.4624913  50.0616493  21.8350113  69.7444913  46.0836493
  21.2110113  70.3264913  45.9016493  22.0830113  69.4584913  45.2976493
  21.7790113  69.7884913  45.9406493  26.1440113  66.3784913  53.0726493
  26.9010113  66.6644913  52.7466493  25.5970113  66.4304913  52.3946493
  26.1750113  66.4284913  52.9236493  30.0530113  68.9284913  51.5766493
  30.3990113  69.1984913  52.3306493  30.3470113  69.5104913  50.9966493
  30.1480113  69.0544913  51.6026493  31.9160113  61.0744913  36.9156493
  32.2940113  61.7514913  36.5156493  31.0740113  61.2984913  36.9466493
  31.8470113  61.2074913  36.8606493  23.4290113  64.5204913  35.9986493
  22.6240113  64.3434913  35.7136493  23.3960113  65.3714913  36.1906493
  23.3050113  64.6194913  35.9856493  19.3590113  60.5874913  46.1486493
  19.7990113  60.4844913  45.4026493  19.9040113  60.2744913  46.7536493
  19.5040113  60.5264913  46.1276493  27.3750113  59.6894913  51.7406493
  26.7270113  60.1594913  52.0886493  27.9400113  59.6004913  52.3996493
  27.3630113  59.7454913  51.8896493  27.0630113  61.2264913  48.0386493
  27.3650113  61.6464913  48.7416493  27.0990113  60.3864913  48.2706493
  27.1130113  61.1644913  48.1766493  29.6110113  60.6734913  40.2906493
  29.8180113  60.4724913  41.1146493  30.3670113  60.9414913  39.9486493
  29.7530113  60.6834913  40.3616493  22.9060113  55.5724913  46.1956493
  22.0800113  55.4234913  46.4326493  22.8660113  55.6074913  45.3246493
  22.7780113  55.5554913  46.1016493  30.6330113  56.7564913  41.7646493
  29.9190113  56.2854913  41.9356493  30.4710113  57.0974913  40.9786493
  30.5040113  56.7374913  41.6736493  31.0760113  64.7004913  40.1446493
  31.5520113  63.9714913  40.0966493  30.2550113  64.4144913  40.0686493
  31.0250113  64.5504913  40.1256493  24.5470113  66.6124913  50.9836493
  23.7520113  66.5484913  51.3346493  24.6180113  67.4594913  50.7886493
  24.4400113  66.7274913  51.0066493  15.4710113  55.9704913  52.2306493
  15.3310113  56.7654913  51.8996493  14.6850113  55.7274913  52.5196493
  15.3340113  56.0524913  52.2246493  18.5350113  58.7144913  39.4556493
  18.6610113  58.3854913  38.6576493  17.7230113  58.4654913  39.6546493
  18.4340113  58.6294913  39.3676493  27.2920113  65.8674913  42.4996493
  27.3680113  66.2084913  43.2986493  27.4610113  65.0204913  42.6206493
  27.3280113  65.7924913  42.6356493  24.8140113  65.1414913  42.0646493
  24.5160113  64.8264913  42.8216493  25.5090113  65.6144913  42.2996493
  24.8730113  65.1644913  42.2116493  25.0360113  69.2594913  50.0916493
  25.7230113  69.1454913  50.6166493  25.1700113  70.0504913  49.7476493
  25.1570113  69.3594913  50.1186493  33.2120113  61.8684913  51.9026493
  32.3570113  61.7464913  52.0286493  33.3650113  61.4734913  51.1396493
  33.1080113  61.7914913  51.8086493  27.7250113  62.5334913  50.4786493
  27.4700113  61.8144913  50.9006493  28.5460113  62.6494913  50.7486493
  27.8090113  62.4444913  50.5806493  25.6590113  63.7234913  53.6656493
  25.9820113  64.4094913  53.2336493  24.9550113  64.0464913  54.0676493
  25.6020113  63.8724913  53.6606493  25.4440113  67.1874913  47.5246493
  24.7500113  67.5894913  47.8676493  26.1210113  67.6204913  47.8636493
  25.4410113  67.3104913  47.6256493  30.8210113  69.7804913  54.1046493
  31.5970113  69.3904913  54.1876493  30.3520113  69.4444913  54.7596493
  30.8660113  69.6734913  54.2136493  18.5120113  60.7254913  49.8716493
  18.8870113  61.3444913  49.3846493  19.1860113  60.2514913  50.1566493
  18.6670113  60.7474913  49.8416493  16.2870113  59.1734913  49.1466493
  16.3640113  59.0044913  48.2936493  17.0330113  59.5794913  49.3436493
  16.4080113  59.2084913  49.0496493  31.8460113  61.8134913  39.5866493
  31.9490113  61.7554913  38.7226493  32.5870113  61.4814913  39.9046493
  31.9710113  61.7564913  39.5056493  18.8410113  56.5834913  51.5576493
  18.7600113  55.7394913  51.7636493  18.5270113  56.6274913  50.7446493
  18.7830113  56.4654913  51.4676493  25.7660113  68.7784913  40.6936493
  25.5610113  69.6114913  40.5346493  24.9910113  68.3964913  40.8156493
  25.6210113  68.8454913  40.6886493  30.9480113  61.9594913  48.9426493
  30.9460113  61.0964913  49.0666493  31.0150113  62.2834913  49.7496493
  30.9580113  61.8794913  49.0796493  15.6840113  64.3994913  49.3706493
  16.0040113  64.6184913  48.5896493  15.5840113  63.5344913  49.3156493
  15.7160113  64.3044913  49.2476493  17.1400113  60.3354913  35.9886493
  16.4680113  60.3494913  36.5446493  17.2350113  59.4874913  35.8046493
  17.0550113  60.2124913  36.0436493  26.8270113  56.7594913  52.7246493
  26.9190113  57.4714913  53.2186493  26.1900113  56.3144913  53.1216493
  26.7460113  56.7984913  52.8566493  25.8210113  56.9494913  43.5786493
  25.1210113  57.4674913  43.5226493  25.8590113  56.5694913  42.7946493
  25.7230113  56.9704913  43.4546493  21.1280113  69.0404913  37.1026493
  21.5690113  69.1204913  37.8506493  20.3230113  68.8244913  37.3606493
  21.0740113  69.0204913  37.2516493  29.4190113  57.4654913  46.3786493
  30.2740113  57.5644913  46.5236493  29.0500113  58.0184913  46.9436493
  29.4910113  57.5624913  46.4836493  20.4470113  63.6914913  50.7556493
  20.0510113  64.4654913  50.8306493  20.0410113  63.3184913  50.0796493
  20.3290113  63.7504913  50.6666493  29.7230113  62.7454913  44.8696493
  30.3890113  63.2864913  45.0296493  29.3780113  63.0564913  44.1306493
  29.7700113  62.8714913  44.7846493  18.4570113  68.1104913  37.7036493
  18.2130113  67.8034913  38.4836493  18.4240113  67.4074913  37.1876493
  18.4160113  67.9614913  37.7426493  21.2760113  66.3554913  36.4466493
  20.4580113  66.0874913  36.5866493  21.2480113  67.2074913  36.6316493
  21.1510113  66.4424913  36.4946493  20.8760113  56.6684913  48.2056493
  20.0120113  56.7524913  48.2856493  21.0960113  56.1544913  48.8746493
  20.7810113  56.6054913  48.3166493  32.8940113  55.3034913  49.5346493
  32.8420113  55.2594913  50.4046493  33.5810113  54.8004913  49.3446493
  32.9880113  55.2234913  49.6346493  24.9790113  57.4164913  46.5796493
  24.2420113  56.9624913  46.6926493  25.5500113  57.0144913  47.1026493
  24.9540113  57.2894913  46.6736493  27.7110113  68.2644913  48.3676493
  27.9170113  68.5654913  49.1596493  27.6500113  68.9864913  47.8826493
  27.7320113  68.4154913  48.4126493  22.4820113  61.7454913  51.7836493
  22.1600113  61.1694913  51.2136493  22.1230113  62.5004913  51.5376493
  22.3820113  61.7714913  51.6636493  23.2780113  54.9974913  36.4106493
  23.3560113  55.2444913  35.5776493  22.5350113  55.3744913  36.6686493
  23.1800113  55.0894913  36.3256493  32.5230113  66.9034913  47.8256493
  32.4910113  66.0414913  47.6906493  31.8300113  67.2054913  47.3916493
  32.4160113  66.8204913  47.7416493  30.6280113  70.1634913  46.6226493
  31.1550113  70.0804913  45.9316493  30.2370113  69.3854913  46.6766493
  30.6480113  70.0364913  46.5286493  18.0960113  56.7514913  48.8536493
  17.7530113  55.9844913  48.6196493  17.4010113  57.2754913  48.9176493
  17.9430113  56.7154913  48.8286493  26.5010113  61.4154913  43.3236493
  27.0520113  60.8084913  43.6236493  26.0760113  61.6784913  44.0386493
  26.5200113  61.3644913  43.4726493  16.7490113  60.0654913  42.8096493
  16.3810113  60.3674913  43.5406493  17.2830113  59.4364913  43.0936493
  16.7730113  60.0174913  42.9596493  16.4370113  68.4734913  50.3206493
  15.8630113  68.8894913  50.8296493  17.1700113  68.9384913  50.4156493
  16.4610113  68.6034913  50.4096493  28.4710113  63.2464913  39.8856493
  28.5390113  62.3964913  40.0666493  27.6480113  63.3324913  39.6076493
  28.3590113  63.1334913  39.8716493  22.3900113  64.1374913  38.8236493
  22.4900113  64.2764913  37.9686493  23.2080113  64.0774913  39.1196493
  22.5250113  64.1484913  38.7406493  31.7450113  64.6194913  53.0366493
  32.3790113  64.4494913  53.6106493  32.1620113  65.0224913  52.3846493
  31.9000113  64.6544913  53.0256493  27.6250113  68.4664913  38.6256493
  27.3740113  68.3384913  39.4516493  27.3080113  67.7714913  38.2046493
  27.5410113  68.3454913  38.6856493  32.3700113  59.1834913  53.7746493
  32.1740113  59.8274913  54.3296493  31.6480113  58.6934913  53.7666493
  32.2350113  59.2064913  53.8556493  32.2690113  60.1244913  46.7456493
  31.4360113  60.3744913  46.6736493  32.2130113  59.2844913  46.9746493
  32.1380113  60.0374913  46.7686493  21.5290113  57.1124913  51.9396493
  21.7630113  56.5364913  51.3266493  20.6870113  56.9314913  52.0806493
  21.4390113  57.0004913  51.8696493  29.1560113  64.7304913  54.3916493
  30.0270113  64.6944913  54.3556493  28.9370113  65.1504913  53.6596493
  29.2530113  64.7864913  54.2786493  24.5110113  66.6744913  38.0556493
  25.2280113  66.3274913  37.6996493  24.4770113  67.4744913  37.7076493
  24.6120113  66.7414913  37.9516493  25.9200113  55.3154913  22.2944083
  25.6750113  55.8034913  21.6144083  26.7830113  55.2424913  22.1944083
  26.0110113  55.3764913  22.1794083  25.7290113  62.2314913  26.9654083
  25.2050113  62.8274913  27.3284083  26.1260113  61.8634913  27.6494083
  25.7100113  62.2654913  27.1204083  15.5980113  66.3714913  22.4214083
  15.1570113  66.4894913  23.1644083  15.3150113  65.5964913  22.1364083
  15.4910113  66.2744913  22.4894083  31.8730113  69.6724913  19.9364083
  32.5740113  69.1534913  19.9324083  31.2860113  69.2274913  19.4674083
  31.8900113  69.5294913  19.8664083  15.3410113  60.1634913  18.9284083
  14.5630113  60.3254913  18.5684083  15.3800113  59.2924913  18.9504083
  15.2320113  60.0584913  18.8784083  18.4800113  65.4264913  17.6004083
  18.0880113  65.0554913  16.9144083  18.4000113  64.8284913  18.2294083
  18.4100113  65.2834913  17.5914083  28.4000113  63.2984913  23.6414083
  28.4800113  63.3024913  22.7724083  27.8160113  62.6664913  23.7904083
  28.3250113  63.2054913  23.5354083  18.1070113  67.0674913  21.5004083
  18.7150113  66.8974913  22.1034083  17.3560113  66.9274913  21.9214083
  18.0860113  67.0214913  21.6514083  22.3890113  56.4024913  21.4494083
  22.3190113  57.0794913  20.9034083  23.1300113  56.0144913  21.2004083
  22.4880113  56.4454913  21.3314083  16.9980113  70.1584913  17.5774083
  17.4650113  70.2424913  16.8454083  17.4530113  69.5804913  18.0464083
  17.1340113  70.0854913  17.5384083  15.5380113  69.1064913  28.6764083
  15.6670113  68.8264913  29.4924083  14.9280113  68.5654913  28.3674083
  15.4670113  68.9854913  28.7514083  22.1120113  66.6314913  33.7434083
  21.8760113  66.6284913  34.5834083  21.3640113  66.4834913  33.3194083
  21.9660113  66.6084913  33.8044083  16.9840113  63.6274913  22.8784083
  16.5220113  63.2354913  22.2514083  17.6840113  63.1144913  22.9704083
  17.0190113  63.4944913  22.7994083  21.4920113  59.2374913  28.2254083
  22.1700113  59.2554913  27.6764083  21.4470113  58.4014913  28.4704083
  21.5850113  59.1164913  28.1804083  18.9850113  61.7274913  22.9014083
  19.8020113  61.5404913  23.1444083  18.5080113  61.1134913  23.2974083
  19.0350113  61.6094913  22.9964083  23.1890113  67.7084913  25.5114083
  23.5370113  66.9094913  25.5414083  23.8540113  68.2124913  25.2564083
  23.3390113  67.6644913  25.4784083  23.2460113  67.1574913  21.7224083
  23.5770113  66.5134913  22.2084083  23.4860113  66.9464913  20.9114083
  23.3300113  67.0314913  21.6744083  25.2140113  61.2884913  33.0614083
  24.3660113  61.1894913  32.8834083  25.2430113  62.0334913  33.5154083
  25.0930113  61.3844913  33.1024083  19.5820113  56.8214913  22.1674083
  19.2860113  57.3224913  21.5174083  20.4490113  56.8994913  22.1104083
  19.6660113  56.9074913  22.0634083  29.7720113  54.2484913  32.1754083
  29.6140113  55.0174913  31.7934083  29.0000113  54.0284913  32.5194083
  29.6340113  54.3294913  32.1704083  22.5610113  55.9634913  24.3904083
  22.6340113  56.8234913  24.5194083  22.5230113  55.8884913  23.5224083
  22.5660113  56.0794913  24.2814083  27.2340113  58.8894913  16.6894083
  26.7840113  59.5704913  16.9964083  27.3480113  58.3854913  17.3924083
  27.1850113  58.9154913  16.8384083  15.4400113  61.3884913  25.8914083
  15.1840113  62.2194913  25.8164083  14.7760113  61.0054913  26.3084083
  15.3040113  61.4544913  25.9424083  21.1900113  68.9424913  21.2714083
  20.6110113  68.6674913  21.8634083  21.8140113  68.3334913  21.2964083
  21.1970113  68.8124913  21.3624083  18.4690113  56.2054913  26.3824083
  17.9480113  55.5774913  26.0744083  19.0600113  55.7684913  26.8534083
  18.4800113  56.0474913  26.4064083  21.7750113  58.3384913  35.6804083
  21.8920113  57.8844913  34.9444083  22.0630113  59.1364913  35.4774083
  21.8350113  58.3894913  35.5414083  16.8950113  69.7684913  21.7224083
  17.5510113  69.1934913  21.7374083  17.2840113  70.5174913  21.5014083
  17.0500113  69.7934913  21.6924083  32.6280113  58.8624913  22.9844083
  32.2820113  59.5404913  23.4104083  31.9920113  58.2644913  23.0004083
  32.4830113  58.8744913  23.0494083  17.5080113  57.9354913  34.6644083
  16.7300113  57.5454913  34.5924083  17.9990113  57.5234913  34.0734083
  17.4650113  57.8164913  34.5664083  17.7130113  68.2554913  25.2224083
  18.1360113  67.8994913  24.5484083  18.0370113  67.8334913  25.9144083
  17.8230113  68.1404913  25.2254083  24.1570113  55.5784913  33.8324083
  24.3350113  54.7694913  33.5574083  24.0140113  56.0194913  33.0934083
  24.1620113  55.5244913  33.6824083  24.7510113  60.5044913  22.6054083
  25.0380113  60.2724913  21.8154083  25.4830113  60.5834913  23.0744083
  24.9010113  60.4814913  22.5584083  25.4730113  60.8434913  17.7264083
  25.7540113  61.6314913  17.9754083  24.6970113  61.0084913  17.3634083
  25.4000113  60.9844913  17.7094083  32.3030113  57.1854913  28.3534083
  33.0600113  57.2574913  27.9254083  32.3660113  56.4124913  28.7524083
  32.4240113  57.0824913  28.3484083  14.8560113  58.4834913  32.2504083
  14.8520113  59.0704913  32.8964083  15.4500113  58.7954913  31.6934083
  14.9430113  58.6164913  32.2634083  27.1940113  68.8174913  32.7924083
  27.1600113  69.1994913  33.5764083  28.0480113  68.7754913  32.6214083
  27.3150113  68.8674913  32.8834083  24.3320113  69.0144913  17.5424083
  24.1510113  69.5594913  18.1994083  25.0980113  69.3044913  17.2414083
  24.4180113  69.1384913  17.5954083  27.8390113  56.9104913  18.5964083
  28.3790113  56.2284913  18.6724083  27.9010113  57.3084913  19.3704083
  27.9280113  56.8684913  18.7224083  15.7930113  58.0784913  21.1654083
  15.6790113  57.2144913  21.1964083  15.3180113  58.3724913  21.8354083
  15.7060113  57.9944913  21.2684083  17.9350113  70.4884913  29.3804083
  17.2370113  69.9804913  29.5064083  18.1950113  70.2834913  28.5724083
  17.8700113  70.3834913  29.2794083  25.0970113  59.2864913  19.9104083
  24.5890113  58.6244913  19.6564083  25.1490113  59.7904913  19.2004083
  25.0300113  59.2634913  19.7684083  25.0970113  56.2274913  19.8014083
  24.6420113  55.8254913  19.1754083  25.8700113  56.3824913  19.4264083
  25.1440113  56.1914913  19.6534083  23.6950113  58.5944913  24.3234083
  23.7690113  59.1624913  23.6654083  23.8160113  59.0864913  25.0334083
  23.7230113  58.7514913  24.3314083  28.9200113  68.4294913  22.7354083
  29.6210113  67.9474913  22.9244083  28.2600113  67.8604913  22.7804083
  28.9260113  68.2744913  22.7694083  19.2960113  69.3394913  31.9474083
  20.1370113  69.4024913  31.7254083  19.2590113  69.7364913  32.7234083
  19.4150113  69.4074913  32.0294083  18.3030113  54.4174913  22.6714083
  18.8390113  55.1054913  22.6614083  18.3060113  54.1434913  21.8434083
  18.3820113  54.4784913  22.5474083  21.2590113  64.8504913  26.6964083
  21.4310113  64.6404913  27.5254083  20.6040113  64.3164913  26.4804083
  21.1880113  64.7404913  26.7874083  27.4870113  58.7644913  30.2114083
  27.3920113  59.0834913  31.0174083  26.8940113  58.1254913  30.1734083
  27.3850113  58.7164913  30.3254083  22.0090113  64.7884913  29.2864083
  22.0620113  65.6354913  29.4884083  21.7240113  64.4184913  30.0234083
  21.9750113  64.8584913  29.4244083  28.1860113  65.4834913  28.4164083
  27.6720113  65.0714913  28.9874083  28.0600113  66.3274913  28.5974083
  28.0920113  65.5474913  28.5274083  28.7430113  54.7084913  23.0474083
  28.7920113  54.3904913  23.8584083  29.0660113  54.0644913  22.5544083
  28.7980113  54.5664913  23.0944083  14.8300113  69.1594913  35.4974083
  15.5860113  69.5084913  35.7554083  15.0070113  68.3064913  35.4404083
  14.9680113  69.0844913  35.5274083  31.2070113  58.9444913  31.3554083
  31.9790113  58.7194913  31.6924083  30.7320113  59.1614913  32.0554083
  31.2510113  58.9434913  31.5084083  18.7510113  58.2274913  24.3254083
  19.0230113  57.7974913  23.6174083  18.5750113  57.5914913  24.8964083
  18.7650113  58.0704913  24.3054083  31.4390113  65.9224913  18.5434083
  31.5580113  65.6354913  19.3584083  32.2460113  65.9434913  18.2134083
  31.5750113  65.8834913  18.6154083  18.5750113  65.6544913  23.8744083
  19.4260113  65.5744913  23.7014083  18.2180113  64.9724913  23.4624083
  18.6480113  65.5414913  23.7874083  16.8920113  59.3294913  27.4074083
  17.7350113  59.5494913  27.3644083  16.5030113  59.9024913  26.8764083
  16.9590113  59.4464913  27.3224083  29.3340113  62.4594913  18.1284083
  29.1140113  63.1904913  17.7064083  28.8860113  62.5104913  18.8754083
  29.2350113  62.5744913  18.1764083  20.9430113  65.6614913  22.1094083
  21.6560113  66.1564913  22.1994083  21.1650113  65.0944913  21.4834083
  21.0810113  65.6504913  22.0304083  33.5210113  57.3204913  17.5814083
  32.8590113  56.7524913  17.6044083  33.3280113  57.8324913  16.9014083
  33.3950113  57.3124913  17.4844083  15.0990113  67.3044913  25.4294083
  14.4320113  67.7924913  25.7054083  15.7790113  67.8494913  25.4584083
  15.1010113  67.4564913  25.4744083  22.7460113  61.0144913  35.5254083
  22.2620113  61.5914913  35.9674083  22.7180113  61.3094913  34.7044083
  22.6700113  61.1434913  35.4694083  33.8440113  61.6984913  30.1374083
  34.0590113  60.8984913  29.8614083  32.9940113  61.7584913  29.9484083
  33.7500113  61.5894913  30.0684083  15.1650113  63.9884913  20.5324083
  14.9800113  63.1494913  20.6844083  15.8240113  63.9524913  19.9624083
  15.2350113  63.8594913  20.4704083  31.5230113  56.8784913  19.8604083
  32.2690113  56.4714913  20.0594083  31.7860113  57.5934913  19.4354083
  31.6720113  56.9244913  19.8274083  25.4660113  69.3644913  24.4364083
  24.9430113  69.9984913  24.1434083  25.7760113  69.0004913  23.7074083
  25.4340113  69.4044913  24.2854083  15.3370113  68.1524913  20.1074083
  15.8890113  68.7214913  20.4714083  15.1050113  67.6374913  20.7724083
  15.3840113  68.1604913  20.2594083  19.5410113  67.1524913  27.1964083
  20.0080113  67.4414913  27.8744083  20.1130113  66.6744913  26.7424083
  19.6950113  67.1244913  27.2294083  27.9770113  59.1664913  24.9334083
  28.3210113  59.3184913  25.7204083  27.5240113  58.4284913  25.0464083
  27.9610113  59.0794913  25.0664083  15.1670113  66.6014913  17.7354083
  15.9230113  66.1694913  17.7934083  15.1820113  67.1334913  18.4264083
  15.2810113  66.6164913  17.8464083  16.1070113  64.8224913  25.7404083
  16.5380113  64.6934913  24.9934083  15.9020113  65.6704913  25.7144083
  16.1400113  64.9284913  25.6264083  22.4530113  58.3864913  19.3904083
  22.4510113  58.2694913  18.5254083  22.2720113  59.2344913  19.4824083
  22.4260113  58.4944913  19.2764083  20.1910113  68.3384913  24.0224083
  20.3170113  69.1814913  24.2094083  20.8590113  67.9394913  24.4184083
  20.3090113  68.4044913  24.1084083  18.3210113  61.8214913  33.8844083
  17.7850113  61.3154913  34.3524083  18.3410113  61.4314913  33.1044083
  18.2440113  61.6884913  33.8384083  18.8060113  61.2184913  19.0244083
  18.6780113  60.7704913  19.7624083  18.2240113  60.8764913  18.4724083
  18.7010113  61.1014913  19.0524083  18.9730113  63.0484913  25.6234083
  18.1920113  62.9894913  25.2404083  19.0450113  62.2964913  26.0604083
  18.8680113  62.9294913  25.6314083  19.4030113  62.7854913  29.0914083
  19.4280113  62.1104913  28.5404083  18.7570113  63.2814913  28.7794083
  19.3120113  62.7584913  28.9644083  29.2980113  60.4984913  27.4874083
  28.6360113  60.8264913  27.9504083  29.4850113  61.1324913  26.9184083
  29.2280113  60.6404913  27.4714083  25.9430113  56.4044913  30.9164083
  26.0920113  55.5794913  30.6734083  26.3220113  56.4594913  31.7004083
  26.0210113  56.2904913  30.9964083  27.4910113  58.4674913  20.9984083
  27.9810113  59.1844913  20.9214083  26.7010113  58.7284913  20.7354083
  27.4470113  58.6114913  20.9484083  17.2020113  64.1404913  34.6504083
  17.1650113  64.6414913  33.9364083  17.5330113  63.3884913  34.3554083
  17.2450113  64.1024913  34.5014083  28.8050113  66.3454913  32.9084083
  29.2890113  67.0634913  33.0064083  29.1990113  65.9184913  32.2574083
  28.9350113  66.3884913  32.8264083  23.1010113  69.1904913  34.0854083
  23.4550113  69.0124913  34.8624083  22.6650113  68.4614913  33.8864083
  23.0890113  69.0564913  34.1714083  24.0730113  59.9374913  26.7234083
  24.5530113  60.6364913  26.9314083  24.4460113  59.2904913  27.1744083
  24.1990113  59.9454913  26.8204083  26.2620113  63.1064913  18.9974083
  26.2540113  63.8284913  18.5074083  25.6230113  63.2414913  19.5744083
  26.1670113  63.2334913  19.0104083  31.2340113  66.9764913  22.9784083
  31.5900113  66.6264913  23.6934083  31.2260113  66.3154913  22.4084083
  31.2860113  66.8264913  22.9994083  27.2790113  70.0424913  26.8224083
  26.6760113  69.7464913  26.2654083  27.8240113  70.4944913  26.3134083
  27.2700113  70.0654913  26.6644083  27.2920113  66.8934913  26.2224083
  26.4950113  67.1174913  26.4964083  27.5500113  66.2994913  26.8074083
  27.2120113  66.8384913  26.3494083  20.8550113  55.4484913  18.6584083
  20.9520113  55.3414913  19.5194083  20.1470113  55.9544913  18.5934083
  20.7650113  55.5074913  18.7764083  30.5520113  64.8914913  31.0684083
  30.6070113  65.0164913  30.2064083  31.3050113  65.2114913  31.3704083
  30.6710113  64.9564913  30.9854083  31.5840113  55.1894913  34.0554083
  30.9470113  54.7894913  33.6134083  31.6100113  54.7584913  34.8134083
  31.4940113  55.0674913  34.1014083  17.9770113  63.7554913  19.9014083
  18.3010113  62.9764913  19.6794083  18.6230113  64.1234913  20.3564083
  18.1200113  63.6944913  19.9354083  26.2830113  64.6974913  30.6684083
  26.1280113  65.3074913  31.2724083  26.8170113  64.1394913  31.0744083
  26.3390113  64.7054913  30.8174083  14.9740113  55.4164913  20.8694083
  15.1030113  54.7084913  20.3774083  14.6070113  55.0984913  21.5944083
  14.9390113  55.2644913  20.9044083  24.6670113  63.0974913  21.3264083
  24.7260113  63.7474913  21.9054083  24.4780113  62.4014913  21.8174083
  24.6480113  63.0904913  21.4844083  29.8930113  67.4264913  27.1954083
  29.4140113  67.7244913  26.5294083  29.5370113  66.6504913  27.3734083
  29.7700113  67.3554913  27.1234083  19.1630113  57.6144913  17.8384083
  18.6520113  57.6674913  17.1324083  19.9470113  57.8544913  17.5424083
  19.2030113  57.6574913  17.6904083  23.8900113  65.1444913  25.7574083
  23.0430113  64.9504913  25.8384083  24.2140113  64.9794913  26.5504083
  23.8120113  65.0914913  25.8864083  17.7380113  64.8374913  28.0734083
  18.4600113  65.3254913  28.0364083  17.4680113  64.8074913  27.2444083
  17.8050113  64.9054913  27.9454083  20.9680113  60.0084913  24.8084083
  21.8140113  59.8184913  24.9064083  20.5980113  59.2314913  24.6704083
  21.0380113  59.8654913  24.8024083  15.7890113  61.3464913  21.4634083
  16.2780113  61.0544913  22.1244083  15.9180113  60.7534913  20.8364083
  15.8800113  61.2154913  21.4684083  30.8240113  64.3684913  28.3144083
  30.8170113  63.5924913  28.7124083  29.9830113  64.6024913  28.3074083
  30.6990113  64.2884913  28.3724083  20.3140113  62.7804913  16.9494083
  19.7040113  62.3754913  17.4234083  19.9280113  62.8984913  16.1764083
  20.1670113  62.7374913  16.9054083  17.1330113  65.8894913  32.3514083
  16.7120113  65.3714913  31.7904083  16.7810113  66.6754913  32.2084083
  17.0190113  65.9294913  32.2474083  32.0800113  64.4394913  25.7514083
  31.7940113  64.8404913  26.4714083  32.9400113  64.3774913  25.8784083
  32.1650113  64.4894913  25.8764083  21.7690113  61.2414913  19.6594083
  22.0410113  62.0674913  19.7264083  20.9060113  61.3164913  19.5634083
  21.6820113  61.3744913  19.6544083  29.7420113  58.3634913  34.2914083
  29.2170113  58.8224913  34.8154083  29.3810113  57.5684913  34.2854083
  29.6110113  58.3134913  34.3674083  15.2490113  57.2114913  26.1954083
  15.2930113  57.5554913  25.3944083  16.0040113  57.4484913  26.5624083
  15.3670113  57.2974913  26.1314083  33.2110113  70.0724913  26.2804083
  33.5010113  70.3294913  25.4994083  33.9060113  70.1684913  26.7994083
  33.3570113  70.1244913  26.2414083  28.2340113  61.9324913  34.3674083
  28.3070113  62.0364913  35.2304083  27.6000113  62.4904913  34.1464083
  28.1510113  62.0304913  34.4624083  30.5020113  62.2514913  32.7324083
  30.8210113  63.0374913  32.9354083  30.1320113  61.9814913  33.4754083
  30.4950113  62.3274913  32.8724083  29.8160113  68.6754913  18.2624083
  30.1500113  67.8694913  18.2974083  29.0610113  68.6034913  18.6924083
  29.7540113  68.5454913  18.3314083  30.2980113  60.5094913  23.9214083
  29.5530113  60.1864913  24.2394083  30.3000113  61.3354913  24.2014083
  30.1880113  60.5834913  24.0094083  33.2000113  62.7934913  35.4674083
  33.1480113  62.4524913  34.6664083  33.9370113  63.2604913  35.4454083
  33.3010113  62.8124913  35.3454083  32.7380113  66.4694913  31.6734083
  33.3660113  65.9204913  31.4174083  32.6770113  67.0344913  31.0114083
  32.8220113  66.4724913  31.5374083  27.1900113  66.5504913  17.6654083
  27.8740113  66.0364913  17.4964083  26.7730113  66.5964913  16.9004083
  27.2290113  66.4814913  17.5274083  21.8720113  67.7004913  28.9694083
  21.5740113  68.2924913  29.5364083  21.9270113  68.1424913  28.2204083
  21.8360113  67.8534913  28.9424083  19.8510113  66.6504913  32.3674083
  19.0450113  66.3604913  32.5344083  19.7620113  67.5184913  32.3734083
  19.7190113  66.7354913  32.3924083  29.2100113  56.8394913  31.3824083
  29.9540113  57.2914913  31.3194083  28.6440113  57.3094913  30.9134083
  29.2370113  56.9764913  31.3044083  24.3880113  64.1234913  28.4604083
  24.8640113  64.4974913  29.0884083  23.5650113  64.2574913  28.7194083
  24.3370113  64.1984913  28.5914083  21.0980113  59.7264913  31.2014083
  21.2590113  58.9824913  31.6284083  21.0530113  59.4774913  30.3664083
  21.1150113  59.5794913  31.1414083  30.4950113  54.8194913  29.0524083
  30.2150113  55.6444913  29.0084083  31.2110113  54.8724913  29.5484083
  30.5600113  54.9494913  29.1194083  22.8500113  55.5344913  31.0814083
  23.5550113  55.8544913  30.6794083  23.0910113  54.7274913  31.3084083
  22.9890113  55.4624913  31.0554083  21.8350113  69.7444913  27.0774083
  21.2110113  70.3264913  26.8954083  22.0830113  69.4584913  26.2914083
  21.7790113  69.7884913  26.9344083  26.1440113  66.3784913  34.0664083
  26.9010113  66.6644913  33.7404083  25.5970113  66.4304913  33.3884083
  26.1750113  66.4284913  33.9174083  30.0530113  68.9284913  32.5704083
  30.3990113  69.1984913  33.3244083  30.3470113  69.5104913  31.9904083
  30.1480113  69.0544913  32.5964083  31.9160113  61.0744913  17.9094083
  32.2940113  61.7514913  17.5094083  31.0740113  61.2984913  17.9404083
  31.8470113  61.2074913  17.8544083  23.4290113  64.5204913  16.9924083
  22.6240113  64.3434913  16.7074083  23.3960113  65.3714913  17.1844083
  23.3050113  64.6194913  16.9794083  19.3590113  60.5874913  27.1424083
  19.7990113  60.4844913  26.3964083  19.9040113  60.2744913  27.7474083
  19.5040113  60.5264913  27.1214083  27.3750113  59.6894913  32.7344083
  26.7270113  60.1594913  33.0824083  27.9400113  59.6004913  33.3934083
  27.3630113  59.7454913  32.8834083  27.0630113  61.2264913  29.0324083
  27.3650113  61.6464913  29.7354083  27.0990113  60.3864913  29.2644083
  27.1130113  61.1644913  29.1704083  29.6110113  60.6734913  21.2844083
  29.8180113  60.4724913  22.1084083  30.3670113  60.9414913  20.9424083
  29.7530113  60.6834913  21.3554083  22.9060113  55.5724913  27.1894083
  22.0800113  55.4234913  27.4264083  22.8660113  55.6074913  26.3184083
  22.7780113  55.5554913  27.0954083  30.6330113  56.7564913  22.7584083
  29.9190113  56.2854913  22.9294083  30.4710113  57.0974913  21.9724083
  30.5040113  56.7374913  22.6674083  31.0760113  64.7004913  21.1384083
  31.5520113  63.9714913  21.0904083  30.2550113  64.4144913  21.0624083
  31.0250113  64.5504913  21.1194083  24.5470113  66.6124913  31.9774083
  23.7520113  66.5484913  32.3284083  24.6180113  67.4594913  31.7824083
  24.4400113  66.7274913  32.0004083  15.4710113  55.9704913  33.2244083
  15.3310113  56.7654913  32.8934083  14.6850113  55.7274913  33.5134083
  15.3340113  56.0524913  33.2184083  18.5350113  58.7144913  20.4494083
  18.6610113  58.3854913  19.6514083  17.7230113  58.4654913  20.6484083
  18.4340113  58.6294913  20.3614083  27.2920113  65.8674913  23.4934083
  27.3680113  66.2084913  24.2924083  27.4610113  65.0204913  23.6144083
  27.3280113  65.7924913  23.6294083  24.8140113  65.1414913  23.0584083
  24.5160113  64.8264913  23.8154083  25.5090113  65.6144913  23.2934083
  24.8730113  65.1644913  23.2054083  25.0360113  69.2594913  31.0854083
  25.7230113  69.1454913  31.6104083  25.1700113  70.0504913  30.7414083
  25.1570113  69.3594913  31.1124083  33.2120113  61.8684913  32.8964083
  32.3570113  61.7464913  33.0224083  33.3650113  61.4734913  32.1334083
  33.1080113  61.7914913  32.8024083  27.7250113  62.5334913  31.4724083
  27.4700113  61.8144913  31.8944083  28.5460113  62.6494913  31.7424083
  27.8090113  62.4444913  31.5744083  25.6590113  63.7234913  34.6594083
  25.9820113  64.4094913  34.2274083  24.9550113  64.0464913  35.0614083
  25.6020113  63.8724913  34.6544083  25.4440113  67.1874913  28.5184083
  24.7500113  67.5894913  28.8614083  26.1210113  67.6204913  28.8574083
  25.4410113  67.3104913  28.6194083  30.8210113  69.7804913  35.0984083
  31.5970113  69.3904913  35.1814083  30.3520113  69.4444913  35.7534083
  30.8660113  69.6734913  35.2074083  18.5120113  60.7254913  30.8654083
  18.8870113  61.3444913  30.3784083  19.1860113  60.2514913  31.1504083
  18.6670113  60.7474913  30.8354083  16.2870113  59.1734913  30.1404083
  16.3640113  59.0044913  29.2874083  17.0330113  59.5794913  30.3374083
  16.4080113  59.2084913  30.0434083  31.8460113  61.8134913  20.5804083
  31.9490113  61.7554913  19.7164083  32.5870113  61.4814913  20.8984083
  31.9710113  61.7564913  20.4994083  18.8410113  56.5834913  32.5514083
  18.7600113  55.7394913  32.7574083  18.5270113  56.6274913  31.7384083
  18.7830113  56.4654913  32.4614083  25.7660113  68.7784913  21.6874083
  25.5610113  69.6114913  21.5284083  24.9910113  68.3964913  21.8094083
  25.6210113  68.8454913  21.6824083  30.9480113  61.9594913  29.9364083
  30.9460113  61.0964913  30.0604083  31.0150113  62.2834913  30.7434083
  30.9580113  61.8794913  30.0734083  15.6840113  64.3994913  30.3644083
  16.0040113  64.6184913  29.5834083  15.5840113  63.5344913  30.3094083
  15.7160113  64.3044913  30.2414083  17.1400113  60.3354913  16.9824083
  16.4680113  60.3494913  17.5384083  17.2350113  59.4874913  16.7984083
  17.0550113  60.2124913  17.0374083  26.8270113  56.7594913  33.7184083
  26.9190113  57.4714913  34.2124083  26.1900113  56.3144913  34.1154083
  26.7460113  56.7984913  33.8504083  25.8210113  56.9494913  24.5724083
  25.1210113  57.4674913  24.5164083  25.8590113  56.5694913  23.7884083
  25.7230113  56.9704913  24.4484083  21.1280113  69.0404913  18.0964083
  21.5690113  69.1204913  18.8444083  20.3230113  68.8244913  18.3544083
  21.0740113  69.0204913  18.2454083  29.4190113  57.4654913  27.3724083
  30.2740113  57.5644913  27.5174083  29.0500113  58.0184913  27.9374083
  29.4910113  57.5624913  27.4774083  20.4470113  63.6914913  31.7494083
  20.0510113  64.4654913  31.8244083  20.0410113  63.3184913  31.0734083
  20.3290113  63.7504913  31.6604083  29.7230113  62.7454913  25.8634083
  30.3890113  63.2864913  26.0234083  29.3780113  63.0564913  25.1244083
  29.7700113  62.8714913  25.7784083  18.4570113  68.1104913  18.6974083
  18.2130113  67.8034913  19.4774083  18.4240113  67.4074913  18.1814083
  18.4160113  67.9614913  18.7364083  21.2760113  66.3554913  17.4404083
  20.4580113  66.0874913  17.5804083  21.2480113  67.2074913  17.6254083
  21.1510113  66.4424913  17.4884083  20.8760113  56.6684913  29.1994083
  20.0120113  56.7524913  29.2794083  21.0960113  56.1544913  29.8684083
  20.7810113  56.6054913  29.3104083  32.8940113  55.3034913  30.5284083
  32.8420113  55.2594913  31.3984083  33.5810113  54.8004913  30.3384083
  32.9880113  55.2234913  30.6284083  24.9790113  57.4164913  27.5734083
  24.2420113  56.9624913  27.6864083  25.5500113  57.0144913  28.0964083
  24.9540113  57.2894913  27.6674083  27.7110113  68.2644913  29.3614083
  27.9170113  68.5654913  30.1534083  27.6500113  68.9864913  28.8764083
  27.7320113  68.4154913  29.4064083  22.4820113  61.7454913  32.7774083
  22.1600113  61.1694913  32.2074083  22.1230113  62.5004913  32.5314083
  22.3820113  61.7714913  32.6574083  23.2780113  54.9974913  17.4044083
  23.3560113  55.2444913  16.5714083  22.5350113  55.3744913  17.6624083
  23.1800113  55.0894913  17.3194083  32.5230113  66.9034913  28.8194083
  32.4910113  66.0414913  28.6844083  31.8300113  67.2054913  28.3854083
  32.4160113  66.8204913  28.7354083  30.6280113  70.1634913  27.6164083
  31.1550113  70.0804913  26.9254083  30.2370113  69.3854913  27.6704083
  30.6480113  70.0364913  27.5224083  18.0960113  56.7514913  29.8474083
  17.7530113  55.9844913  29.6134083  17.4010113  57.2754913  29.9114083
  17.9430113  56.7154913  29.8224083  27.1420113  55.6074913  26.8244083
  27.8120113  56.1514913  26.9514083  26.6390113  56.0314913  26.2514083
  27.1670113  55.7504913  26.7584083  26.5010113  61.4154913  24.3174083
  27.0520113  60.8084913  24.6174083  26.0760113  61.6784913  25.0324083
  26.5200113  61.3644913  24.4664083  16.7490113  60.0654913  23.8034083
  16.3810113  60.3674913  24.5344083  17.2830113  59.4364913  24.0874083
  16.7730113  60.0174913  23.9534083  16.4370113  68.4734913  31.3144083
  15.8630113  68.8894913  31.8234083  17.1700113  68.9384913  31.4094083
  16.4610113  68.6034913  31.4034083  28.4710113  63.2464913  20.8794083
  28.5390113  62.3964913  21.0604083  27.6480113  63.3324913  20.6014083
  28.3590113  63.1334913  20.8654083  22.3900113  64.1374913  19.8174083
  22.4900113  64.2764913  18.9624083  23.2080113  64.0774913  20.1134083
  22.5250113  64.1484913  19.7344083  31.7450113  64.6194913  34.0304083
  32.3790113  64.4494913  34.6044083  32.1620113  65.0224913  33.3784083
  31.9000113  64.6544913  34.0194083  27.6250113  68.4664913  19.6194083
  27.3740113  68.3384913  20.4454083  27.3080113  67.7714913  19.1984083
  27.5410113  68.3454913  19.6794083  32.3700113  59.1834913  34.7684083
  32.1740113  59.8274913  35.3234083  31.6480113  58.6934913  34.7604083
  32.2350113  59.2064913  34.8494083  32.2690113  60.1244913  27.7394083
  31.4360113  60.3744913  27.6674083  32.2130113  59.2844913  27.9684083
  32.1380113  60.0374913  27.7624083  21.5290113  57.1124913  32.9334083
  21.7630113  56.5364913  32.3204083  20.6870113  56.9314913  33.0744083
  21.4390113  57.0004913  32.8634083  29.1560113  64.7304913  35.3854083
  30.0270113  64.6944913  35.3494083  28.9370113  65.1504913  34.6534083
  29.2530113  64.7864913  35.2724083  24.5110113  66.6744913  19.0494083
  25.2280113  66.3274913  18.6934083  24.4770113  67.4744913  18.7014083
  24.6120113  66.7414913  18.9454083  25.9200113  55.3154913   3.2881673
  25.6750113  55.8034913   2.6081673  26.7830113  55.2424913   3.1881673
  26.0110113  55.3764913   3.1731673  25.7290113  62.2314913   7.9591673
  25.2050113  62.8274913   8.3221673  26.1260113  61.8634913   8.6431673
  25.7100113  62.2654913   8.1141673  15.5980113  66.3714913   3.4151673
  15.1570113  66.4894913   4.1581673  15.3150113  65.5964913   3.1301673
  15.4910113  66.2744913   3.4831673  28.4000113  63.2984913   4.6351673
  28.4800113  63.3024913   3.7661673  27.8160113  62.6664913   4.7841673
  28.3250113  63.2054913   4.5291673  18.1070113  67.0674913   2.4941673
  18.7150113  66.8974913   3.0971673  17.3560113  66.9274913   2.9151673
  18.0860113  67.0214913   2.6451673  22.3890113  56.4024913   2.4431673
  22.3190113  57.0794913   1.8971673  23.1300113  56.0144913   2.1941673
  22.4880113  56.4454913   2.3251673  15.5380113  69.1064913   9.6701673
  15.6670113  68.8264913  10.4861673  14.9280113  68.5654913   9.3611673
  15.4670113  68.9854913   9.7451673  22.1120113  66.6314913  14.7371673
  21.8760113  66.6284913  15.5771673  21.3640113  66.4834913  14.3131673
  21.9660113  66.6084913  14.7981673  16.9840113  63.6274913   3.8721673
  16.5220113  63.2354913   3.2451673  17.6840113  63.1144913   3.9641673
  17.0190113  63.4944913   3.7931673  21.4920113  59.2374913   9.2191673
  22.1700113  59.2554913   8.6701673  21.4470113  58.4014913   9.4641673
  21.5850113  59.1164913   9.1741673  18.9850113  61.7274913   3.8951673
  19.8020113  61.5404913   4.1381673  18.5080113  61.1134913   4.2911673
  19.0350113  61.6094913   3.9901673  23.1890113  67.7084913   6.5051673
  23.5370113  66.9094913   6.5351673  23.8540113  68.2124913   6.2501673
  23.3390113  67.6644913   6.4721673  23.2460113  67.1574913   2.7161673
  23.5770113  66.5134913   3.2021673  23.4860113  66.9464913   1.9051673
  23.3300113  67.0314913   2.6681673  25.2140113  61.2884913  14.0551673
  24.3660113  61.1894913  13.8771673  25.2430113  62.0334913  14.5091673
  25.0930113  61.3844913  14.0961673  19.5820113  56.8214913   3.1611673
  19.2860113  57.3224913   2.5111673  20.4490113  56.8994913   3.1041673
  19.6660113  56.9074913   3.0571673  29.7720113  54.2484913  13.1691673
  29.6140113  55.0174913  12.7871673  29.0000113  54.0284913  13.5131673
  29.6340113  54.3294913  13.1641673  22.5610113  55.9634913   5.3841673
  22.6340113  56.8234913   5.5131673  22.5230113  55.8884913   4.5161673
  22.5660113  56.0794913   5.2751673  15.4400113  61.3884913   6.8851673
  15.1840113  62.2194913   6.8101673  14.7760113  61.0054913   7.3021673
  15.3040113  61.4544913   6.9361673  21.1900113  68.9424913   2.2651673
  20.6110113  68.6674913   2.8571673  21.8140113  68.3334913   2.2901673
  21.1970113  68.8124913   2.3561673  18.4690113  56.2054913   7.3761673
  17.9480113  55.5774913   7.0681673  19.0600113  55.7684913   7.8471673
  18.4800113  56.0474913   7.4001673  21.7750113  58.3384913  16.6741673
  21.8920113  57.8844913  15.9381673  22.0630113  59.1364913  16.4711673
  21.8350113  58.3894913  16.5351673  16.8950113  69.7684913   2.7161673
  17.5510113  69.1934913   2.7311673  17.2840113  70.5174913   2.4951673
  17.0500113  69.7934913   2.6861673  32.6280113  58.8624913   3.9781673
  32.2820113  59.5404913   4.4041673  31.9920113  58.2644913   3.9941673
  32.4830113  58.8744913   4.0431673  17.5080113  57.9354913  15.6581673
  16.7300113  57.5454913  15.5861673  17.9990113  57.5234913  15.0671673
  17.4650113  57.8164913  15.5601673  17.7130113  68.2554913   6.2161673
  18.1360113  67.8994913   5.5421673  18.0370113  67.8334913   6.9081673
  17.8230113  68.1404913   6.2191673  24.1570113  55.5784913  14.8261673
  24.3350113  54.7694913  14.5511673  24.0140113  56.0194913  14.0871673
  24.1620113  55.5244913  14.6761673  24.7510113  60.5044913   3.5991673
  25.0380113  60.2724913   2.8091673  25.4830113  60.5834913   4.0681673
  24.9010113  60.4814913   3.5521673  32.3030113  57.1854913   9.3471673
  33.0600113  57.2574913   8.9191673  32.3660113  56.4124913   9.7461673
  32.4240113  57.0824913   9.3421673  14.8560113  58.4834913  13.2441673
  14.8520113  59.0704913  13.8901673  15.4500113  58.7954913  12.6871673
  14.9430113  58.6164913  13.2571673  27.1940113  68.8174913  13.7861673
  27.1600113  69.1994913  14.5701673  28.0480113  68.7754913  13.6151673
  27.3150113  68.8674913  13.8771673  15.7930113  58.0784913   2.1591673
  15.6790113  57.2144913   2.1901673  15.3180113  58.3724913   2.8291673
  15.7060113  57.9944913   2.2621673  17.9350113  70.4884913  10.3741673
  17.2370113  69.9804913  10.5001673  18.1950113  70.2834913   9.5661673
  17.8700113  70.3834913  10.2731673  23.6950113  58.5944913   5.3171673
  23.7690113  59.1624913   4.6591673  23.8160113  59.0864913   6.0271673
  23.7230113  58.7514913   5.3251673  28.9200113  68.4294913   3.7291673
  29.6210113  67.9474913   3.9181673  28.2600113  67.8604913   3.7741673
  28.9260113  68.2744913   3.7631673  19.2960113  69.3394913  12.9411673
  20.1370113  69.4024913  12.7191673  19.2590113  69.7364913  13.7171673
  19.4150113  69.4074913  13.0231673  18.3030113  54.4174913   3.6651673
  18.8390113  55.1054913   3.6551673  18.3060113  54.1434913   2.8371673
  18.3820113  54.4784913   3.5411673  21.2590113  64.8504913   7.6901673
  21.4310113  64.6404913   8.5191673  20.6040113  64.3164913   7.4741673
  21.1880113  64.7404913   7.7811673  27.4870113  58.7644913  11.2051673
  27.3920113  59.0834913  12.0111673  26.8940113  58.1254913  11.1671673
  27.3850113  58.7164913  11.3191673  22.0090113  64.7884913  10.2801673
  22.0620113  65.6354913  10.4821673  21.7240113  64.4184913  11.0171673
  21.9750113  64.8584913  10.4181673  28.1860113  65.4834913   9.4101673
  27.6720113  65.0714913   9.9811673  28.0600113  66.3274913   9.5911673
  28.0920113  65.5474913   9.5211673  28.7430113  54.7084913   4.0411673
  28.7920113  54.3904913   4.8521673  29.0660113  54.0644913   3.5481673
  28.7980113  54.5664913   4.0881673  14.8300113  69.1594913  16.4911673
  15.5860113  69.5084913  16.7491673  15.0070113  68.3064913  16.4341673
  14.9680113  69.0844913  16.5211673  31.2070113  58.9444913  12.3491673
  31.9790113  58.7194913  12.6861673  30.7320113  59.1614913  13.0491673
  31.2510113  58.9434913  12.5021673  18.7510113  58.2274913   5.3191673
  19.0230113  57.7974913   4.6111673  18.5750113  57.5914913   5.8901673
  18.7650113  58.0704913   5.2991673  18.5750113  65.6544913   4.8681673
  19.4260113  65.5744913   4.6951673  18.2180113  64.9724913   4.4561673
  18.6480113  65.5414913   4.7811673  16.8920113  59.3294913   8.4011673
  17.7350113  59.5494913   8.3581673  16.5030113  59.9024913   7.8701673
  16.9590113  59.4464913   8.3161673  20.9430113  65.6614913   3.1031673
  21.6560113  66.1564913   3.1931673  21.1650113  65.0944913   2.4771673
  21.0810113  65.6504913   3.0241673  15.0990113  67.3044913   6.4231673
  14.4320113  67.7924913   6.6991673  15.7790113  67.8494913   6.4521673
  15.1010113  67.4564913   6.4681673  22.7460113  61.0144913  16.5191673
  22.2620113  61.5914913  16.9611673  22.7180113  61.3094913  15.6981673
  22.6700113  61.1434913  16.4631673  33.8440113  61.6984913  11.1311673
  34.0590113  60.8984913  10.8551673  32.9940113  61.7584913  10.9421673
  33.7500113  61.5894913  11.0621673  25.4660113  69.3644913   5.4301673
  24.9430113  69.9984913   5.1371673  25.7760113  69.0004913   4.7011673
  25.4340113  69.4044913   5.2791673  19.5410113  67.1524913   8.1901673
  20.0080113  67.4414913   8.8681673  20.1130113  66.6744913   7.7361673
  19.6950113  67.1244913   8.2231673  27.9770113  59.1664913   5.9271673
  28.3210113  59.3184913   6.7141673  27.5240113  58.4284913   6.0401673
  27.9610113  59.0794913   6.0601673  16.1070113  64.8224913   6.7341673
  16.5380113  64.6934913   5.9871673  15.9020113  65.6704913   6.7081673
  16.1400113  64.9284913   6.6201673  20.1910113  68.3384913   5.0161673
  20.3170113  69.1814913   5.2031673  20.8590113  67.9394913   5.4121673
  20.3090113  68.4044913   5.1021673  18.3210113  61.8214913  14.8781673
  17.7850113  61.3154913  15.3461673  18.3410113  61.4314913  14.0981673
  18.2440113  61.6884913  14.8321673  18.9730113  63.0484913   6.6171673
  18.1920113  62.9894913   6.2341673  19.0450113  62.2964913   7.0541673
  18.8680113  62.9294913   6.6251673  19.4030113  62.7854913  10.0851673
  19.4280113  62.1104913   9.5341673  18.7570113  63.2814913   9.7731673
  19.3120113  62.7584913   9.9581673  29.2980113  60.4984913   8.4811673
  28.6360113  60.8264913   8.9441673  29.4850113  61.1324913   7.9121673
  29.2280113  60.6404913   8.4651673  25.9430113  56.4044913  11.9101673
  26.0920113  55.5794913  11.6671673  26.3220113  56.4594913  12.6941673
  26.0210113  56.2904913  11.9901673  27.4910113  58.4674913   1.9921673
  27.9810113  59.1844913   1.9151673  26.7010113  58.7284913   1.7291673
  27.4470113  58.6114913   1.9421673  17.2020113  64.1404913  15.6441673
  17.1650113  64.6414913  14.9301673  17.5330113  63.3884913  15.3491673
  17.2450113  64.1024913  15.4951673  28.8050113  66.3454913  13.9021673
  29.2890113  67.0634913  14.0001673  29.1990113  65.9184913  13.2511673
  28.9350113  66.3884913  13.8201673  23.1010113  69.1904913  15.0791673
  23.4550113  69.0124913  15.8561673  22.6650113  68.4614913  14.8801673
  23.0890113  69.0564913  15.1651673  24.0730113  59.9374913   7.7171673
  24.5530113  60.6364913   7.9251673  24.4460113  59.2904913   8.1681673
  24.1990113  59.9454913   7.8141673  31.2340113  66.9764913   3.9721673
  31.5900113  66.6264913   4.6871673  31.2260113  66.3154913   3.4021673
  31.2860113  66.8264913   3.9931673  27.2790113  70.0424913   7.8161673
  26.6760113  69.7464913   7.2591673  27.8240113  70.4944913   7.3071673
  27.2700113  70.0654913   7.6581673  27.2920113  66.8934913   7.2161673
  26.4950113  67.1174913   7.4901673  27.5500113  66.2994913   7.8011673
  27.2120113  66.8384913   7.3431673  30.5520113  64.8914913  12.0621673
  30.6070113  65.0164913  11.2001673  31.3050113  65.2114913  12.3641673
  30.6710113  64.9564913  11.9791673  31.5840113  55.1894913  15.0491673
  30.9470113  54.7894913  14.6071673  31.6100113  54.7584913  15.8071673
  31.4940113  55.0674913  15.0951673  26.2830113  64.6974913  11.6621673
  26.1280113  65.3074913  12.2661673  26.8170113  64.1394913  12.0681673
  26.3390113  64.7054913  11.8111673  14.9740113  55.4164913   1.8631673
  15.1030113  54.7084913   1.3711673  14.6070113  55.0984913   2.5881673
  14.9390113  55.2644913   1.8981673  24.6670113  63.0974913   2.3201673
  24.7260113  63.7474913   2.8991673  24.4780113  62.4014913   2.8111673
  24.6480113  63.0904913   2.4781673  29.8930113  67.4264913   8.1891673
  29.4140113  67.7244913   7.5231673  29.5370113  66.6504913   8.3671673
  29.7700113  67.3554913   8.1171673  23.8900113  65.1444913   6.7511673
  23.0430113  64.9504913   6.8321673  24.2140113  64.9794913   7.5441673
  23.8120113  65.0914913   6.8801673  17.7380113  64.8374913   9.0671673
  18.4600113  65.3254913   9.0301673  17.4680113  64.8074913   8.2381673
  17.8050113  64.9054913   8.9391673  20.9680113  60.0084913   5.8021673
  21.8140113  59.8184913   5.9001673  20.5980113  59.2314913   5.6641673
  21.0380113  59.8654913   5.7961673  15.7890113  61.3464913   2.4571673
  16.2780113  61.0544913   3.1181673  15.9180113  60.7534913   1.8301673
  15.8800113  61.2154913   2.4621673  30.8240113  64.3684913   9.3081673
  30.8170113  63.5924913   9.7061673  29.9830113  64.6024913   9.3011673
  30.6990113  64.2884913   9.3661673  17.1330113  65.8894913  13.3451673
  16.7120113  65.3714913  12.7841673  16.7810113  66.6754913  13.2021673
  17.0190113  65.9294913  13.2411673  32.0800113  64.4394913   6.7451673
  31.7940113  64.8404913   7.4651673  32.9400113  64.3774913   6.8721673
  32.1650113  64.4894913   6.8701673  29.7420113  58.3634913  15.2851673
  29.2170113  58.8224913  15.8091673  29.3810113  57.5684913  15.2791673
  29.6110113  58.3134913  15.3611673  15.2490113  57.2114913   7.1891673
  15.2930113  57.5554913   6.3881673  16.0040113  57.4484913   7.5561673
  15.3670113  57.2974913   7.1251673  33.2110113  70.0724913   7.2741673
  33.5010113  70.3294913   6.4931673  33.9060113  70.1684913   7.7931673
  33.3570113  70.1244913   7.2351673  28.2340113  61.9324913  15.3611673
  28.3070113  62.0364913  16.2241673  27.6000113  62.4904913  15.1401673
  28.1510113  62.0304913  15.4561673  30.5020113  62.2514913  13.7261673
  30.8210113  63.0374913  13.9291673  30.1320113  61.9814913  14.4691673
  30.4950113  62.3274913  13.8661673  30.2980113  60.5094913   4.9151673
  29.5530113  60.1864913   5.2331673  30.3000113  61.3354913   5.1951673
  30.1880113  60.5834913   5.0031673  33.2000113  62.7934913  16.4611673
  33.1480113  62.4524913  15.6601673  33.9370113  63.2604913  16.4391673
  33.3010113  62.8124913  16.3391673  32.7380113  66.4694913  12.6671673
  33.3660113  65.9204913  12.4111673  32.6770113  67.0344913  12.0051673
  32.8220113  66.4724913  12.5311673  21.8720113  67.7004913   9.9631673
  21.5740113  68.2924913  10.5301673  21.9270113  68.1424913   9.2141673
  21.8360113  67.8534913   9.9361673  19.8510113  66.6504913  13.3611673
  19.0450113  66.3604913  13.5281673  19.7620113  67.5184913  13.3671673
  19.7190113  66.7354913  13.3861673  29.2100113  56.8394913  12.3761673
  29.9540113  57.2914913  12.3131673  28.6440113  57.3094913  11.9071673
  29.2370113  56.9764913  12.2981673  24.3880113  64.1234913   9.4541673
  24.8640113  64.4974913  10.0821673  23.5650113  64.2574913   9.7131673
  24.3370113  64.1984913   9.5851673  21.0980113  59.7264913  12.1951673
  21.2590113  58.9824913  12.6221673  21.0530113  59.4774913  11.3601673
  21.1150113  59.5794913  12.1351673  30.4950113  54.8194913  10.0461673
  30.2150113  55.6444913  10.0021673  31.2110113  54.8724913  10.5421673
  30.5600113  54.9494913  10.1131673  22.8500113  55.5344913  12.0751673
  23.5550113  55.8544913  11.6731673  23.0910113  54.7274913  12.3021673
  22.9890113  55.4624913  12.0491673  21.8350113  69.7444913   8.0711673
  21.2110113  70.3264913   7.8891673  22.0830113  69.4584913   7.2851673
  21.7790113  69.7884913   7.9281673  26.1440113  66.3784913  15.0601673
  26.9010113  66.6644913  14.7341673  25.5970113  66.4304913  14.3821673
  26.1750113  66.4284913  14.9111673  30.0530113  68.9284913  13.5641673
  30.3990113  69.1984913  14.3181673  30.3470113  69.5104913  12.9841673
  30.1480113  69.0544913  13.5901673  19.3590113  60.5874913   8.1361673
  19.7990113  60.4844913   7.3901673  19.9040113  60.2744913   8.7411673
  19.5040113  60.5264913   8.1151673  27.3750113  59.6894913  13.7281673
  26.7270113  60.1594913  14.0761673  27.9400113  59.6004913  14.3871673
  27.3630113  59.7454913  13.8771673  27.0630113  61.2264913  10.0261673
  27.3650113  61.6464913  10.7291673  27.0990113  60.3864913  10.2581673
  27.1130113  61.1644913  10.1641673  29.6110113  60.6734913   2.2781673
  29.8180113  60.4724913   3.1021673  30.3670113  60.9414913   1.9361673
  29.7530113  60.6834913   2.3491673  22.9060113  55.5724913   8.1831673
  22.0800113  55.4234913   8.4201673  22.8660113  55.6074913   7.3121673
  22.7780113  55.5554913   8.0891673  30.6330113  56.7564913   3.7521673
  29.9190113  56.2854913   3.9231673  30.4710113  57.0974913   2.9661673
  30.5040113  56.7374913   3.6611673  31.0760113  64.7004913   2.1321673
  31.5520113  63.9714913   2.0841673  30.2550113  64.4144913   2.0561673
  31.0250113  64.5504913   2.1131673  24.5470113  66.6124913  12.9711673
  23.7520113  66.5484913  13.3221673  24.6180113  67.4594913  12.7761673
  24.4400113  66.7274913  12.9941673  15.4710113  55.9704913  14.2181673
  15.3310113  56.7654913  13.8871673  14.6850113  55.7274913  14.5071673
  15.3340113  56.0524913  14.2121673  27.2920113  65.8674913   4.4871673
  27.3680113  66.2084913   5.2861673  27.4610113  65.0204913   4.6081673
  27.3280113  65.7924913   4.6231673  24.8140113  65.1414913   4.0521673
  24.5160113  64.8264913   4.8091673  25.5090113  65.6144913   4.2871673
  24.8730113  65.1644913   4.1991673  25.0360113  69.2594913  12.0791673
  25.7230113  69.1454913  12.6041673  25.1700113  70.0504913  11.7351673
  25.1570113  69.3594913  12.1061673  33.2120113  61.8684913  13.8901673
  32.3570113  61.7464913  14.0161673  33.3650113  61.4734913  13.1271673
  33.1080113  61.7914913  13.7961673  27.7250113  62.5334913  12.4661673
  27.4700113  61.8144913  12.8881673  28.5460113  62.6494913  12.7361673
  27.8090113  62.4444913  12.5681673  25.6590113  63.7234913  15.6531673
  25.9820113  64.4094913  15.2211673  24.9550113  64.0464913  16.0551673
  25.6020113  63.8724913  15.6481673  25.4440113  67.1874913   9.5121673
  24.7500113  67.5894913   9.8551673  26.1210113  67.6204913   9.8511673
  25.4410113  67.3104913   9.6131673  30.8210113  69.7804913  16.0921673
  31.5970113  69.3904913  16.1751673  30.3520113  69.4444913  16.7471673
  30.8660113  69.6734913  16.2011673  18.5120113  60.7254913  11.8591673
  18.8870113  61.3444913  11.3721673  19.1860113  60.2514913  12.1441673
  18.6670113  60.7474913  11.8291673  16.2870113  59.1734913  11.1341673
  16.3640113  59.0044913  10.2811673  17.0330113  59.5794913  11.3311673
  16.4080113  59.2084913  11.0371673  18.8410113  56.5834913  13.5451673
  18.7600113  55.7394913  13.7511673  18.5270113  56.6274913  12.7321673
  18.7830113  56.4654913  13.4551673  25.7660113  68.7784913   2.6811673
  25.5610113  69.6114913   2.5221673  24.9910113  68.3964913   2.8031673
  25.6210113  68.8454913   2.6761673  30.9480113  61.9594913  10.9301673
  30.9460113  61.0964913  11.0541673  31.0150113  62.2834913  11.7371673
  30.9580113  61.8794913  11.0671673  15.6840113  64.3994913  11.3581673
  16.0040113  64.6184913  10.5771673  15.5840113  63.5344913  11.3031673
  15.7160113  64.3044913  11.2351673  26.8270113  56.7594913  14.7121673
  26.9190113  57.4714913  15.2061673  26.1900113  56.3144913  15.1091673
  26.7460113  56.7984913  14.8441673  25.8210113  56.9494913   5.5661673
  25.1210113  57.4674913   5.5101673  25.8590113  56.5694913   4.7821673
  25.7230113  56.9704913   5.4421673  29.4190113  57.4654913   8.3661673
  30.2740113  57.5644913   8.5111673  29.0500113  58.0184913   8.9311673
  29.4910113  57.5624913   8.4711673  20.4470113  63.6914913  12.7431673
  20.0510113  64.4654913  12.8181673  20.0410113  63.3184913  12.0671673
  20.3290113  63.7504913  12.6541673  29.7230113  62.7454913   6.8571673
  30.3890113  63.2864913   7.0171673  29.3780113  63.0564913   6.1181673
  29.7700113  62.8714913   6.7721673  20.8760113  56.6684913  10.1931673
  20.0120113  56.7524913  10.2731673  21.0960113  56.1544913  10.8621673
  20.7810113  56.6054913  10.3041673  32.8940113  55.3034913  11.5221673
  32.8420113  55.2594913  12.3921673  33.5810113  54.8004913  11.3321673
  32.9880113  55.2234913  11.6221673  24.9790113  57.4164913   8.5671673
  24.2420113  56.9624913   8.6801673  25.5500113  57.0144913   9.0901673
  24.9540113  57.2894913   8.6611673  27.7110113  68.2644913  10.3551673
  27.9170113  68.5654913  11.1471673  27.6500113  68.9864913   9.8701673
  27.7320113  68.4154913  10.4001673  22.4820113  61.7454913  13.7711673
  22.1600113  61.1694913  13.2011673  22.1230113  62.5004913  13.5251673
  22.3820113  61.7714913  13.6511673  32.5230113  66.9034913   9.8131673
  32.4910113  66.0414913   9.6781673  31.8300113  67.2054913   9.3791673
  32.4160113  66.8204913   9.7291673  30.6280113  70.1634913   8.6101673
  31.1550113  70.0804913   7.9191673  30.2370113  69.3854913   8.6641673
  30.6480113  70.0364913   8.5161673  18.0960113  56.7514913  10.8411673
  17.7530113  55.9844913  10.6071673  17.4010113  57.2754913  10.9051673
  17.9430113  56.7154913  10.8161673  27.1420113  55.6074913   7.8181673
  27.8120113  56.1514913   7.9451673  26.6390113  56.0314913   7.2451673
  27.1670113  55.7504913   7.7521673  26.5010113  61.4154913   5.3111673
  27.0520113  60.8084913   5.6111673  26.0760113  61.6784913   6.0261673
  26.5200113  61.3644913   5.4601673  16.7490113  60.0654913   4.7971673
  16.3810113  60.3674913   5.5281673  17.2830113  59.4364913   5.0811673
  16.7730113  60.0174913   4.9471673  16.4370113  68.4734913  12.3081673
  15.8630113  68.8894913  12.8171673  17.1700113  68.9384913  12.4031673
  16.4610113  68.6034913  12.3971673  28.4710113  63.2464913   1.8731673
  28.5390113  62.3964913   2.0541673  27.6480113  63.3324913   1.5951673
  28.3590113  63.1334913   1.8591673  31.7450113  64.6194913  15.0241673
  32.3790113  64.4494913  15.5981673  32.1620113  65.0224913  14.3721673
  31.9000113  64.6544913  15.0131673  32.3700113  59.1834913  15.7621673
  32.1740113  59.8274913  16.3171673  31.6480113  58.6934913  15.7541673
  32.2350113  59.2064913  15.8431673  32.2690113  60.1244913   8.7331673
  31.4360113  60.3744913   8.6611673  32.2130113  59.2844913   8.9621673
  32.1380113  60.0374913   8.7561673  21.5290113  57.1124913  13.9271673
  21.7630113  56.5364913  13.3141673  20.6870113  56.9314913  14.0681673
  21.4390113  57.0004913  13.8571673  29.1560113  64.7304913  16.3791673
  30.0270113  64.6944913  16.3431673  28.9370113  65.1504913  15.6471673
  29.2530113  64.7864913  16.2661673  25.9200113  36.8373833  79.3131313
  25.6750113  37.3253833  78.6331313  26.7830113  36.7643833  79.2131313
  26.0110113  36.8983833  79.1981313  25.7290113  43.7533833  83.9841313
  25.2050113  44.3493833  84.3471313  26.1260113  43.3853833  84.6681313
  25.7100113  43.7873833  84.1391313  15.5980113  47.8933833  79.4401313
  15.1570113  48.0113833  80.1831313  15.3150113  47.1183833  79.1551313
  15.4910113  47.7963833  79.5081313  31.8730113  51.1943833  76.9551313
  32.5740113  50.6753833  76.9511313  31.2860113  50.7493833  76.4861313
  31.8900113  51.0513833  76.8851313  15.3410113  41.6853833  75.9471313
  14.5630113  41.8473833  75.5871313  15.3800113  40.8143833  75.9691313
  15.2320113  41.5803833  75.8971313  18.4800113  46.9483833  74.6191313
  18.0880113  46.5773833  73.9331313  18.4000113  46.3503833  75.2481313
  18.4100113  46.8053833  74.6101313  28.4000113  44.8203833  80.6601313
  28.4800113  44.8243833  79.7911313  27.8160113  44.1883833  80.8091313
  28.3250113  44.7273833  80.5541313  18.1070113  48.5893833  78.5191313
  18.7150113  48.4193833  79.1221313  17.3560113  48.4493833  78.9401313
  18.0860113  48.5433833  78.6701313  22.3890113  37.9243833  78.4681313
  22.3190113  38.6013833  77.9221313  23.1300113  37.5363833  78.2191313
  22.4880113  37.9673833  78.3501313  16.9980113  51.6803833  74.5961313
  17.4650113  51.7643833  73.8641313  17.4530113  51.1023833  75.0651313
  17.1340113  51.6073833  74.5571313  15.5380113  50.6283833  85.6951313
  15.6670113  50.3483833  86.5111313  14.9280113  50.0873833  85.3861313
  15.4670113  50.5073833  85.7701313  16.9840113  45.1493833  79.8971313
  16.5220113  44.7573833  79.2701313  17.6840113  44.6363833  79.9891313
  17.0190113  45.0163833  79.8181313  21.4920113  40.7593833  85.2441313
  22.1700113  40.7773833  84.6951313  21.4470113  39.9233833  85.4891313
  21.5850113  40.6383833  85.1991313  22.0940113  51.3453833  88.0251313
  22.2320113  52.1053833  87.6181313  22.8850113  50.9803833  88.0521313
  22.2310113  51.4043833  87.9691313  18.9850113  43.2493833  79.9201313
  19.8020113  43.0623833  80.1631313  18.5080113  42.6353833  80.3161313
  19.0350113  43.1313833  80.0151313  23.1890113  49.2303833  82.5301313
  23.5370113  48.4313833  82.5601313  23.8540113  49.7343833  82.2751313
  23.3390113  49.1863833  82.4971313  23.2460113  48.6793833  78.7411313
  23.5770113  48.0353833  79.2271313  23.4860113  48.4683833  77.9301313
  23.3300113  48.5533833  78.6931313  19.5820113  38.3433833  79.1861313
  19.2860113  38.8443833  78.5361313  20.4490113  38.4213833  79.1291313
  19.6660113  38.4293833  79.0821313  22.5610113  37.4853833  81.4091313
  22.6340113  38.3453833  81.5381313  22.5230113  37.4103833  80.5411313
  22.5660113  37.6013833  81.3001313  27.2340113  40.4113833  73.7081313
  26.7840113  41.0923833  74.0151313  27.3480113  39.9073833  74.4111313
  27.1850113  40.4373833  73.8571313  15.4400113  42.9103833  82.9101313
  15.1840113  43.7413833  82.8351313  14.7760113  42.5273833  83.3271313
  15.3040113  42.9763833  82.9611313  15.3500113  52.6203833  80.8101313
  14.7580113  53.1783833  80.4971313  15.7760113  52.3513833  80.0981313
  15.3260113  52.6623833  80.6591313  21.1900113  50.4643833  78.2901313
  20.6110113  50.1893833  78.8821313  21.8140113  49.8553833  78.3151313
  21.1970113  50.3343833  78.3811313  27.3330113  52.7523833  75.8121313
  28.0600113  53.2243833  75.9141313  27.5620113  51.9583833  76.0921313
  27.4750113  52.7053833  75.8691313  25.5010113  53.1443833  77.8021313
  25.7150113  53.6713833  78.4641313  26.2680113  52.9703833  77.4231313
  25.6460113  53.1963833  77.8441313  18.4690113  37.7273833  83.4011313
  17.9480113  37.0993833  83.0931313  19.0600113  37.2903833  83.8721313
  18.4800113  37.5693833  83.4251313  16.8950113  51.2903833  78.7411313
  17.5510113  50.7153833  78.7561313  17.2840113  52.0393833  78.5201313
  17.0500113  51.3153833  78.7111313  32.6280113  40.3843833  80.0031313
  32.2820113  41.0623833  80.4291313  31.9920113  39.7863833  80.0191313
  32.4830113  40.3963833  80.0681313  27.9400113  53.1543833  86.1071313
  28.6840113  53.6103833  86.0971313  27.8190113  52.9403833  85.2701313
  28.0320113  53.1903833  85.9821313  17.7130113  49.7773833  82.2411313
  18.1360113  49.4213833  81.5671313  18.0370113  49.3553833  82.9331313
  17.8230113  49.6623833  82.2441313  20.9440113  52.6293833  81.5371313
  21.7880113  52.7333833  81.3421313  20.6470113  53.4473833  81.6051313
  21.0250113  52.7653833  81.5181313  24.7510113  42.0263833  79.6241313
  25.0380113  41.7943833  78.8341313  25.4830113  42.1053833  80.0931313
  24.9010113  42.0033833  79.5771313  25.4730113  42.3653833  74.7451313
  25.7540113  43.1533833  74.9941313  24.6970113  42.5303833  74.3821313
  25.4000113  42.5063833  74.7281313  29.5140113  54.3393833  76.2121313
  30.1790113  54.1913833  75.6671313  29.8740113  54.2563833  77.0021313
  29.6660113  54.3053833  76.2481313  19.9420113  53.8483833  87.2771313
  20.2340113  53.7813833  88.0971313  19.3160113  53.2433833  87.2321313
  19.8930113  53.7493833  87.3921313  32.3030113  38.7073833  85.3721313
  33.0600113  38.7793833  84.9441313  32.3660113  37.9343833  85.7711313
  32.4240113  38.6043833  85.3671313  24.3320113  50.5363833  74.5611313
  24.1510113  51.0813833  75.2181313  25.0980113  50.8263833  74.2601313
  24.4180113  50.6603833  74.6141313  27.8390113  38.4323833  75.6151313
  28.3790113  37.7503833  75.6911313  27.9010113  38.8303833  76.3891313
  27.9280113  38.3903833  75.7411313  15.7930113  39.6003833  78.1841313
  15.6790113  38.7363833  78.2151313  15.3180113  39.8943833  78.8541313
  15.7060113  39.5163833  78.2871313  17.9350113  52.0103833  86.3991313
  17.2370113  51.5023833  86.5251313  18.1950113  51.8053833  85.5911313
  17.8700113  51.9053833  86.2981313  25.0970113  40.8083833  76.9291313
  24.5890113  40.1463833  76.6751313  25.1490113  41.3123833  76.2191313
  25.0300113  40.7853833  76.7871313  25.6460113  53.5033833  87.3091313
  26.4140113  53.4233833  86.9031313  25.0630113  53.3823833  86.6711313
  25.6730113  53.4733833  87.1551313  25.0970113  37.7493833  76.8201313
  24.6420113  37.3473833  76.1941313  25.8700113  37.9043833  76.4451313
  25.1440113  37.7133833  76.6721313  31.9230113  54.1063833  80.2101313
  31.4680113  54.8233833  80.4111313  31.3090113  53.5353833  79.9681313
  31.7650113  54.1283833  80.2041313  23.6950113  40.1163833  81.3421313
  23.7690113  40.6843833  80.6841313  23.8160113  40.6083833  82.0521313
  23.7230113  40.2733833  81.3501313  28.9200113  49.9513833  79.7541313
  29.6210113  49.4693833  79.9431313  28.2600113  49.3823833  79.7991313
  28.9260113  49.7963833  79.7881313  18.3030113  35.9393833  79.6901313
  18.8390113  36.6273833  79.6801313  18.3060113  35.6653833  78.8621313
  18.3820113  36.0003833  79.5661313  21.2590113  46.3723833  83.7151313
  21.4310113  46.1623833  84.5441313  20.6040113  45.8383833  83.4991313
  21.1880113  46.2623833  83.8061313  27.4870113  40.2863833  87.2301313
  27.3920113  40.6053833  88.0361313  26.8940113  39.6473833  87.1921313
  27.3850113  40.2383833  87.3441313  22.0090113  46.3103833  86.3051313
  22.0620113  47.1573833  86.5071313  21.7240113  45.9403833  87.0421313
  21.9750113  46.3803833  86.4431313  28.1860113  47.0053833  85.4351313
  27.6720113  46.5933833  86.0061313  28.0600113  47.8493833  85.6161313
  28.0920113  47.0693833  85.5461313  28.7430113  36.2303833  80.0661313
  28.7920113  35.9123833  80.8771313  29.0660113  35.5863833  79.5731313
  28.7980113  36.0883833  80.1131313  18.7510113  39.7493833  81.3441313
  19.0230113  39.3193833  80.6361313  18.5750113  39.1133833  81.9151313
  18.7650113  39.5923833  81.3241313  31.4390113  47.4443833  75.5621313
  31.5580113  47.1573833  76.3771313  32.2460113  47.4653833  75.2321313
  31.5750113  47.4053833  75.6341313  18.5750113  47.1763833  80.8931313
  19.4260113  47.0963833  80.7201313  18.2180113  46.4943833  80.4811313
  18.6480113  47.0633833  80.8061313  17.3420113  53.9013833  82.1301313
  16.6690113  53.4033833  81.8851313  17.7450113  54.0863833  81.3791313
  17.3020113  53.8553833  81.9831313  16.8920113  40.8513833  84.4261313
  17.7350113  41.0713833  84.3831313  16.5030113  41.4243833  83.8951313
  16.9590113  40.9683833  84.3411313  29.3340113  43.9813833  75.1471313
  29.1140113  44.7123833  74.7251313  28.8860113  44.0323833  75.8941313
  29.2350113  44.0963833  75.1951313  20.9430113  47.1833833  79.1281313
  21.6560113  47.6783833  79.2181313  21.1650113  46.6163833  78.5021313
  21.0810113  47.1723833  79.0491313  33.5210113  38.8423833  74.6001313
  32.8590113  38.2743833  74.6231313  33.3280113  39.3543833  73.9201313
  33.3950113  38.8343833  74.5031313  15.0990113  48.8263833  82.4481313
  14.4320113  49.3143833  82.7241313  15.7790113  49.3713833  82.4771313
  15.1010113  48.9783833  82.4931313  33.8440113  43.2203833  87.1561313
  34.0590113  42.4203833  86.8801313  32.9940113  43.2803833  86.9671313
  33.7500113  43.1113833  87.0871313  15.1650113  45.5103833  77.5511313
  14.9800113  44.6713833  77.7031313  15.8240113  45.4743833  76.9811313
  15.2350113  45.3813833  77.4891313  31.5230113  38.4003833  76.8791313
  32.2690113  37.9933833  77.0781313  31.7860113  39.1153833  76.4541313
  31.6720113  38.4463833  76.8461313  25.4660113  50.8863833  81.4551313
  24.9430113  51.5203833  81.1621313  25.7760113  50.5223833  80.7261313
  25.4340113  50.9263833  81.3041313  15.3370113  49.6743833  77.1261313
  15.8890113  50.2433833  77.4901313  15.1050113  49.1593833  77.7911313
  15.3840113  49.6823833  77.2781313  19.5410113  48.6743833  84.2151313
  20.0080113  48.9633833  84.8931313  20.1130113  48.1963833  83.7611313
  19.6950113  48.6463833  84.2481313  27.9770113  40.6883833  81.9521313
  28.3210113  40.8403833  82.7391313  27.5240113  39.9503833  82.0651313
  27.9610113  40.6013833  82.0851313  15.1670113  48.1233833  74.7541313
  15.9230113  47.6913833  74.8121313  15.1820113  48.6553833  75.4451313
  15.2810113  48.1383833  74.8651313  16.1070113  46.3443833  82.7591313
  16.5380113  46.2153833  82.0121313  15.9020113  47.1923833  82.7331313
  16.1400113  46.4503833  82.6451313  22.4530113  39.9083833  76.4091313
  22.4510113  39.7913833  75.5441313  22.2720113  40.7563833  76.5011313
  22.4260113  40.0163833  76.2951313  31.5070113  52.3353833  87.9061313
  30.8360113  52.8493833  88.1241313  31.5700113  52.4353833  87.0421313
  31.4170113  52.4263833  87.8111313  20.1910113  49.8603833  81.0411313
  20.3170113  50.7033833  81.2281313  20.8590113  49.4613833  81.4371313
  20.3090113  49.9263833  81.1271313  18.8060113  42.7403833  76.0431313
  18.6780113  42.2923833  76.7811313  18.2240113  42.3983833  75.4911313
  18.7010113  42.6233833  76.0711313  18.9730113  44.5703833  82.6421313
  18.1920113  44.5113833  82.2591313  19.0450113  43.8183833  83.0791313
  18.8680113  44.4513833  82.6501313  19.4030113  44.3073833  86.1101313
  19.4280113  43.6323833  85.5591313  18.7570113  44.8033833  85.7981313
  19.3120113  44.2803833  85.9831313  29.2980113  42.0203833  84.5061313
  28.6360113  42.3483833  84.9691313  29.4850113  42.6543833  83.9371313
  29.2280113  42.1623833  84.4901313  23.5030113  53.0843833  85.5021313
  23.2260113  52.4433833  84.9791313  23.2950113  53.8103833  85.0641313
  23.4320113  53.0973833  85.3601313  25.9430113  37.9263833  87.9351313
  26.0920113  37.1013833  87.6921313  26.3220113  37.9813833  88.7191313
  26.0210113  37.8123833  88.0151313  27.4910113  39.9893833  78.0171313
  27.9810113  40.7063833  77.9401313  26.7010113  40.2503833  77.7541313
  27.4470113  40.1333833  77.9671313  24.0730113  41.4593833  83.7421313
  24.5530113  42.1583833  83.9501313  24.4460113  40.8123833  84.1931313
  24.1990113  41.4673833  83.8391313  26.2620113  44.6283833  76.0161313
  26.2540113  45.3503833  75.5261313  25.6230113  44.7633833  76.5931313
  26.1670113  44.7553833  76.0291313  31.2340113  48.4983833  79.9971313
  31.5900113  48.1483833  80.7121313  31.2260113  47.8373833  79.4271313
  31.2860113  48.3483833  80.0181313  27.2790113  51.5643833  83.8411313
  26.6760113  51.2683833  83.2841313  27.8240113  52.0163833  83.3321313
  27.2700113  51.5873833  83.6831313  27.2920113  48.4153833  83.2411313
  26.4950113  48.6393833  83.5151313  27.5500113  47.8213833  83.8261313
  27.2120113  48.3603833  83.3681313  21.1840113  53.2273833  77.6891313
  21.0370113  52.4513833  78.0601313  21.8730113  53.0803833  77.1741313
  21.2640113  53.0903833  77.6681313  20.8550113  36.9703833  75.6771313
  20.9520113  36.8633833  76.5381313  20.1470113  37.4763833  75.6121313
  20.7650113  37.0293833  75.7951313  23.4760113  52.7433833  76.0911313
  24.0980113  52.9063833  76.6811313  23.5120113  53.4343833  75.5591313
  23.5730113  52.8693833  76.1001313  30.5520113  46.4133833  88.0871313
  30.6070113  46.5383833  87.2251313  31.3050113  46.7333833  88.3891313
  30.6710113  46.4783833  88.0041313  17.9770113  45.2773833  76.9201313
  18.3010113  44.4983833  76.6981313  18.6230113  45.6453833  77.3751313
  18.1200113  45.2163833  76.9541313  26.2830113  46.2193833  87.6871313
  26.1280113  46.8293833  88.2911313  26.8170113  45.6613833  88.0931313
  26.3390113  46.2273833  87.8361313  14.9740113  36.9383833  77.8881313
  15.1030113  36.2303833  77.3961313  14.6070113  36.6203833  78.6131313
  14.9390113  36.7863833  77.9231313  24.6670113  44.6193833  78.3451313
  24.7260113  45.2693833  78.9241313  24.4780113  43.9233833  78.8361313
  24.6480113  44.6123833  78.5031313  29.8930113  48.9483833  84.2141313
  29.4140113  49.2463833  83.5481313  29.5370113  48.1723833  84.3921313
  29.7700113  48.8773833  84.1421313  19.1630113  39.1363833  74.8571313
  18.6520113  39.1893833  74.1511313  19.9470113  39.3763833  74.5611313
  19.2030113  39.1793833  74.7091313  23.8900113  46.6663833  82.7761313
  23.0430113  46.4723833  82.8571313  24.2140113  46.5013833  83.5691313
  23.8120113  46.6133833  82.9051313  20.6420113  53.3963833  73.6621313
  21.0810113  52.6993833  73.9501313  20.8490113  54.0203833  74.2351313
  20.7380113  53.3853833  73.7891313  17.7380113  46.3593833  85.0921313
  18.4600113  46.8473833  85.0551313  17.4680113  46.3293833  84.2631313
  17.8050113  46.4273833  84.9641313  20.9680113  41.5303833  81.8271313
  21.8140113  41.3403833  81.9251313  20.5980113  40.7533833  81.6891313
  21.0380113  41.3873833  81.8211313  33.5850113  53.1143833  76.1541313
  34.2790113  52.6473833  75.9061313  33.0460113  52.5163833  76.4911313
  33.6080113  52.9563833  76.1671313  15.7890113  42.8683833  78.4821313
  16.2780113  42.5763833  79.1431313  15.9180113  42.2753833  77.8551313
  15.8800113  42.7373833  78.4871313  30.8240113  45.8903833  85.3331313
  30.8170113  45.1143833  85.7311313  29.9830113  46.1243833  85.3261313
  30.6990113  45.8103833  85.3911313  20.3140113  44.3023833  73.9681313
  19.7040113  43.8973833  74.4421313  19.9280113  44.4203833  73.1951313
  20.1670113  44.2593833  73.9241313  32.0800113  45.9613833  82.7701313
  31.7940113  46.3623833  83.4901313  32.9400113  45.8993833  82.8971313
  32.1650113  46.0113833  82.8951313  21.7690113  42.7633833  76.6781313
  22.0410113  43.5893833  76.7451313  20.9060113  42.8383833  76.5821313
  21.6820113  42.8963833  76.6731313  15.2490113  38.7333833  83.2141313
  15.2930113  39.0773833  82.4131313  16.0040113  38.9703833  83.5811313
  15.3670113  38.8193833  83.1501313  33.2110113  51.5943833  83.2991313
  33.5010113  51.8513833  82.5181313  33.9060113  51.6903833  83.8181313
  33.3570113  51.6463833  83.2601313  29.8160113  50.1973833  75.2811313
  30.1500113  49.3913833  75.3161313  29.0610113  50.1253833  75.7111313
  29.7540113  50.0673833  75.3501313  30.2980113  42.0313833  80.9401313
  29.5530113  41.7083833  81.2581313  30.3000113  42.8573833  81.2201313
  30.1880113  42.1053833  81.0281313  32.7380113  47.9913833  88.6921313
  33.3660113  47.4423833  88.4361313  32.6770113  48.5563833  88.0301313
  32.8220113  47.9943833  88.5561313  27.1900113  48.0723833  74.6841313
  27.8740113  47.5583833  74.5151313  26.7730113  48.1183833  73.9191313
  27.2290113  48.0033833  74.5461313  21.8720113  49.2223833  85.9881313
  21.5740113  49.8143833  86.5551313  21.9270113  49.6643833  85.2391313
  21.8360113  49.3753833  85.9611313  29.2100113  38.3613833  88.4011313
  29.9540113  38.8133833  88.3381313  28.6440113  38.8313833  87.9321313
  29.2370113  38.4983833  88.3231313  24.3880113  45.6453833  85.4791313
  24.8640113  46.0193833  86.1071313  23.5650113  45.7793833  85.7381313
  24.3370113  45.7203833  85.6101313  21.0980113  41.2483833  88.2201313
  21.2590113  40.5043833  88.6471313  21.0530113  40.9993833  87.3851313
  21.1150113  41.1013833  88.1601313  23.6520113  53.0383833  80.7071313
  24.1980113  53.7173833  80.7611313  23.3020113  53.1203833  79.9121313
  23.6810113  53.1513833  80.5971313  30.4950113  36.3413833  86.0711313
  30.2150113  37.1663833  86.0271313  31.2110113  36.3943833  86.5671313
  30.5600113  36.4713833  86.1381313  22.8500113  37.0563833  88.1001313
  23.5550113  37.3763833  87.6981313  23.0910113  36.2493833  88.3271313
  22.9890113  36.9843833  88.0741313  21.8350113  51.2663833  84.0961313
  21.2110113  51.8483833  83.9141313  22.0830113  50.9803833  83.3101313
  21.7790113  51.3103833  83.9531313  31.9160113  42.5963833  74.9281313
  32.2940113  43.2733833  74.5281313  31.0740113  42.8203833  74.9591313
  31.8470113  42.7293833  74.8731313  23.4290113  46.0423833  74.0111313
  22.6240113  45.8653833  73.7261313  23.3960113  46.8933833  74.2031313
  23.3050113  46.1413833  73.9981313  19.3590113  42.1093833  84.1611313
  19.7990113  42.0063833  83.4151313  19.9040113  41.7963833  84.7661313
  19.5040113  42.0483833  84.1401313  27.0630113  42.7483833  86.0511313
  27.3650113  43.1683833  86.7541313  27.0990113  41.9083833  86.2831313
  27.1130113  42.6863833  86.1891313  29.6110113  42.1953833  78.3031313
  29.8180113  41.9943833  79.1271313  30.3670113  42.4633833  77.9611313
  29.7530113  42.2053833  78.3741313  22.9060113  37.0943833  84.2081313
  22.0800113  36.9453833  84.4451313  22.8660113  37.1293833  83.3371313
  22.7780113  37.0773833  84.1141313  30.6330113  38.2783833  79.7771313
  29.9190113  37.8073833  79.9481313  30.4710113  38.6193833  78.9911313
  30.5040113  38.2593833  79.6861313  31.0760113  46.2223833  78.1571313
  31.5520113  45.4933833  78.1091313  30.2550113  45.9363833  78.0811313
  31.0250113  46.0723833  78.1381313  20.3770113  54.3413833  84.3131313
  20.3880113  54.4003833  85.1831313  19.9520113  53.5943833  84.1631313
  20.3160113  54.2393833  84.4191313  18.5350113  40.2363833  77.4681313
  18.6610113  39.9073833  76.6701313  17.7230113  39.9873833  77.6671313
  18.4340113  40.1513833  77.3801313  27.2920113  47.3893833  80.5121313
  27.3680113  47.7303833  81.3111313  27.4610113  46.5423833  80.6331313
  27.3280113  47.3143833  80.6481313  24.8140113  46.6633833  80.0771313
  24.5160113  46.3483833  80.8341313  25.5090113  47.1363833  80.3121313
  24.8730113  46.6863833  80.2241313  25.0360113  50.7813833  88.1041313
  25.7230113  50.6673833  88.6291313  25.1700113  51.5723833  87.7601313
  25.1570113  50.8813833  88.1311313  27.7250113  44.0553833  88.4911313
  27.4700113  43.3363833  88.9131313  28.5460113  44.1713833  88.7611313
  27.8090113  43.9663833  88.5931313  28.7430113  53.6193833  82.6071313
  28.2920113  54.2623833  82.9861313  29.4510113  53.5403833  83.1121313
  28.7810113  53.7023833  82.7381313  25.4440113  48.7093833  85.5371313
  24.7500113  49.1113833  85.8801313  26.1210113  49.1423833  85.8761313
  25.4410113  48.8323833  85.6381313  18.5120113  42.2473833  87.8841313
  18.8870113  42.8663833  87.3971313  19.1860113  41.7733833  88.1691313
  18.6670113  42.2693833  87.8541313  16.2870113  40.6953833  87.1591313
  16.3640113  40.5263833  86.3061313  17.0330113  41.1013833  87.3561313
  16.4080113  40.7303833  87.0621313  31.8460113  43.3353833  77.5991313
  31.9490113  43.2773833  76.7351313  32.5870113  43.0033833  77.9171313
  31.9710113  43.2783833  77.5181313  25.7660113  50.3003833  78.7061313
  25.5610113  51.1333833  78.5471313  24.9910113  49.9183833  78.8281313
  25.6210113  50.3673833  78.7011313  30.9480113  43.4813833  86.9551313
  30.9460113  42.6183833  87.0791313  31.0150113  43.8053833  87.7621313
  30.9580113  43.4013833  87.0921313  15.6840113  45.9213833  87.3831313
  16.0040113  46.1403833  86.6021313  15.5840113  45.0563833  87.3281313
  15.7160113  45.8263833  87.2601313  17.1400113  41.8573833  74.0011313
  16.4680113  41.8713833  74.5571313  17.2350113  41.0093833  73.8171313
  17.0550113  41.7343833  74.0561313  25.8210113  38.4713833  81.5911313
  25.1210113  38.9893833  81.5351313  25.8590113  38.0913833  80.8071313
  25.7230113  38.4923833  81.4671313  21.1280113  50.5623833  75.1151313
  21.5690113  50.6423833  75.8631313  20.3230113  50.3463833  75.3731313
  21.0740113  50.5423833  75.2641313  29.4190113  38.9873833  84.3911313
  30.2740113  39.0863833  84.5361313  29.0500113  39.5403833  84.9561313
  29.4910113  39.0843833  84.4961313  20.4470113  45.2133833  88.7681313
  20.0510113  45.9873833  88.8431313  20.0410113  44.8403833  88.0921313
  20.3290113  45.2723833  88.6791313  29.7230113  44.2673833  82.8821313
  30.3890113  44.8083833  83.0421313  29.3780113  44.5783833  82.1431313
  29.7700113  44.3933833  82.7971313  30.0360113  52.3333833  78.6891313
  29.8620113  51.6793833  79.2391313  30.7490113  52.0623833  78.2661313
  30.1160113  52.1963833  78.7081313  18.4570113  49.6323833  75.7161313
  18.2130113  49.3253833  76.4961313  18.4240113  48.9293833  75.2001313
  18.4160113  49.4833833  75.7551313  21.2760113  47.8773833  74.4591313
  20.4580113  47.6093833  74.5991313  21.2480113  48.7293833  74.6441313
  21.1510113  47.9643833  74.5071313  20.8760113  38.1903833  86.2181313
  20.0120113  38.2743833  86.2981313  21.0960113  37.6763833  86.8871313
  20.7810113  38.1273833  86.3291313  32.8940113  36.8253833  87.5471313
  32.8420113  36.7813833  88.4171313  33.5810113  36.3223833  87.3571313
  32.9880113  36.7453833  87.6471313  24.9790113  38.9383833  84.5921313
  24.2420113  38.4843833  84.7051313  25.5500113  38.5363833  85.1151313
  24.9540113  38.8113833  84.6861313  27.7110113  49.7863833  86.3801313
  27.9170113  50.0873833  87.1721313  27.6500113  50.5083833  85.8951313
  27.7320113  49.9373833  86.4251313  23.2780113  36.5193833  74.4231313
  23.3560113  36.7663833  73.5901313  22.5350113  36.8963833  74.6811313
  23.1800113  36.6113833  74.3381313  32.5230113  48.4253833  85.8381313
  32.4910113  47.5633833  85.7031313  31.8300113  48.7273833  85.4041313
  32.4160113  48.3423833  85.7541313  30.6280113  51.6853833  84.6351313
  31.1550113  51.6023833  83.9441313  30.2370113  50.9073833  84.6891313
  30.6480113  51.5583833  84.5411313  18.0960113  38.2733833  86.8661313
  17.7530113  37.5063833  86.6321313  17.4010113  38.7973833  86.9301313
  17.9430113  38.2373833  86.8411313  27.1420113  37.1293833  83.8431313
  27.8120113  37.6733833  83.9701313  26.6390113  37.5533833  83.2701313
  27.1670113  37.2723833  83.7771313  26.5010113  42.9373833  81.3361313
  27.0520113  42.3303833  81.6361313  26.0760113  43.2003833  82.0511313
  26.5200113  42.8863833  81.4851313  16.7490113  41.5873833  80.8221313
  16.3810113  41.8893833  81.5531313  17.2830113  40.9583833  81.1061313
  16.7730113  41.5393833  80.9721313  16.4370113  49.9953833  88.3331313
  15.8630113  50.4113833  88.8421313  17.1700113  50.4603833  88.4281313
  16.4610113  50.1253833  88.4221313  28.4710113  44.7683833  77.8981313
  28.5390113  43.9183833  78.0791313  27.6480113  44.8543833  77.6201313
  28.3590113  44.6553833  77.8841313  18.2230113  53.2623833  77.1081313
  18.0780113  53.4183833  76.2621313  19.0890113  53.3413833  77.1861313
  18.3300113  53.2973833  76.9951313  22.3900113  45.6593833  76.8361313
  22.4900113  45.7983833  75.9811313  23.2080113  45.5993833  77.1321313
  22.5250113  45.6703833  76.7531313  31.5500113  53.7233833  74.3161313
  32.1870113  53.5893833  74.8971313  31.2090113  52.9293833  74.1991313
  31.5940113  53.5863833  74.3841313  27.6250113  49.9883833  76.6381313
  27.3740113  49.8603833  77.4641313  27.3080113  49.2933833  76.2171313
  27.5410113  49.8673833  76.6981313  32.2690113  41.6463833  84.7581313
  31.4360113  41.8963833  84.6861313  32.2130113  40.8063833  84.9871313
  32.1380113  41.5593833  84.7811313  18.9100113  52.0773833  83.5851313
  18.8310113  51.2673833  83.2691313  18.4660113  52.5643833  83.0131313
  18.8330113  52.0293833  83.4541313  24.5110113  48.1963833  76.0681313
  25.2280113  47.8493833  75.7121313  24.4770113  48.9963833  75.7201313
  24.6120113  48.2633833  75.9641313  16.4820113  54.3213833  87.1661313
  16.9750113  54.2653833  87.8841313  16.6700113  53.5883833  86.7311313
  16.5830113  54.2043833  87.2081313  25.9200113  36.8373833  60.3068903
  25.6750113  37.3253833  59.6268903  26.7830113  36.7643833  60.2068903
  26.0110113  36.8983833  60.1918903  25.7290113  43.7533833  64.9778903
  25.2050113  44.3493833  65.3408903  26.1260113  43.3853833  65.6618903
  25.7100113  43.7873833  65.1328903  15.5980113  47.8933833  60.4338903
  15.1570113  48.0113833  61.1768903  15.3150113  47.1183833  60.1488903
  15.4910113  47.7963833  60.5018903  31.8730113  51.1943833  57.9488903
  32.5740113  50.6753833  57.9448903  31.2860113  50.7493833  57.4798903
  31.8900113  51.0513833  57.8788903  18.4800113  46.9483833  55.6128903
  18.0880113  46.5773833  54.9268903  18.4000113  46.3503833  56.2418903
  18.4100113  46.8053833  55.6038903  28.4000113  44.8203833  61.6538903
  28.4800113  44.8243833  60.7848903  27.8160113  44.1883833  61.8028903
  28.3250113  44.7273833  61.5478903  18.1070113  48.5893833  59.5128903
  18.7150113  48.4193833  60.1158903  17.3560113  48.4493833  59.9338903
  18.0860113  48.5433833  59.6638903  22.3890113  37.9243833  59.4618903
  22.3190113  38.6013833  58.9158903  23.1300113  37.5363833  59.2128903
  22.4880113  37.9673833  59.3438903  16.9980113  51.6803833  55.5898903
  17.4650113  51.7643833  54.8578903  17.4530113  51.1023833  56.0588903
  17.1340113  51.6073833  55.5508903  15.5380113  50.6283833  66.6888903
  15.6670113  50.3483833  67.5048903  14.9280113  50.0873833  66.3798903
  15.4670113  50.5073833  66.7638903  22.1120113  48.1533833  71.7558903
  21.8760113  48.1503833  72.5958903  21.3640113  48.0053833  71.3318903
  21.9660113  48.1303833  71.8168903  16.9840113  45.1493833  60.8908903
  16.5220113  44.7573833  60.2638903  17.6840113  44.6363833  60.9828903
  17.0190113  45.0163833  60.8118903  21.4920113  40.7593833  66.2378903
  22.1700113  40.7773833  65.6888903  21.4470113  39.9233833  66.4828903
  21.5850113  40.6383833  66.1928903  22.0940113  51.3453833  69.0188903
  22.2320113  52.1053833  68.6118903  22.8850113  50.9803833  69.0458903
  22.2310113  51.4043833  68.9628903  18.9850113  43.2493833  60.9138903
  19.8020113  43.0623833  61.1568903  18.5080113  42.6353833  61.3098903
  19.0350113  43.1313833  61.0088903  23.1890113  49.2303833  63.5238903
  23.5370113  48.4313833  63.5538903  23.8540113  49.7343833  63.2688903
  23.3390113  49.1863833  63.4908903  23.2460113  48.6793833  59.7348903
  23.5770113  48.0353833  60.2208903  23.4860113  48.4683833  58.9238903
  23.3300113  48.5533833  59.6868903  25.2140113  42.8103833  71.0738903
  24.3660113  42.7113833  70.8958903  25.2430113  43.5553833  71.5278903
  25.0930113  42.9063833  71.1148903  19.5820113  38.3433833  60.1798903
  19.2860113  38.8443833  59.5298903  20.4490113  38.4213833  60.1228903
  19.6660113  38.4293833  60.0758903  29.7720113  35.7703833  70.1878903
  29.6140113  36.5393833  69.8058903  29.0000113  35.5503833  70.5318903
  29.6340113  35.8513833  70.1828903  22.5610113  37.4853833  62.4028903
  22.6340113  38.3453833  62.5318903  22.5230113  37.4103833  61.5348903
  22.5660113  37.6013833  62.2938903  27.2340113  40.4113833  54.7018903
  26.7840113  41.0923833  55.0088903  27.3480113  39.9073833  55.4048903
  27.1850113  40.4373833  54.8508903  15.4400113  42.9103833  63.9038903
  15.1840113  43.7413833  63.8288903  14.7760113  42.5273833  64.3208903
  15.3040113  42.9763833  63.9548903  15.3500113  52.6203833  61.8038903
  14.7580113  53.1783833  61.4908903  15.7760113  52.3513833  61.0918903
  15.3260113  52.6623833  61.6528903  21.1900113  50.4643833  59.2838903
  20.6110113  50.1893833  59.8758903  21.8140113  49.8553833  59.3088903
  21.1970113  50.3343833  59.3748903  27.3330113  52.7523833  56.8058903
  28.0600113  53.2243833  56.9078903  27.5620113  51.9583833  57.0858903
  27.4750113  52.7053833  56.8628903  25.5010113  53.1443833  58.7958903
  25.7150113  53.6713833  59.4578903  26.2680113  52.9703833  58.4168903
  25.6460113  53.1963833  58.8378903  18.4690113  37.7273833  64.3948903
  17.9480113  37.0993833  64.0868903  19.0600113  37.2903833  64.8658903
  18.4800113  37.5693833  64.4188903  21.7750113  39.8603833  73.6928903
  21.8920113  39.4063833  72.9568903  22.0630113  40.6583833  73.4898903
  21.8350113  39.9113833  73.5538903  16.8950113  51.2903833  59.7348903
  17.5510113  50.7153833  59.7498903  17.2840113  52.0393833  59.5138903
  17.0500113  51.3153833  59.7048903  27.9400113  53.1543833  67.1008903
  28.6840113  53.6103833  67.0908903  27.8190113  52.9403833  66.2638903
  28.0320113  53.1903833  66.9758903  17.5080113  39.4573833  72.6768903
  16.7300113  39.0673833  72.6048903  17.9990113  39.0453833  72.0858903
  17.4650113  39.3383833  72.5788903  17.7130113  49.7773833  63.2348903
  18.1360113  49.4213833  62.5608903  18.0370113  49.3553833  63.9268903
  17.8230113  49.6623833  63.2378903  20.9440113  52.6293833  62.5308903
  21.7880113  52.7333833  62.3358903  20.6470113  53.4473833  62.5988903
  21.0250113  52.7653833  62.5118903  24.1570113  37.1003833  71.8448903
  24.3350113  36.2913833  71.5698903  24.0140113  37.5413833  71.1058903
  24.1620113  37.0463833  71.6948903  24.7510113  42.0263833  60.6178903
  25.0380113  41.7943833  59.8278903  25.4830113  42.1053833  61.0868903
  24.9010113  42.0033833  60.5708903  25.4730113  42.3653833  55.7388903
  25.7540113  43.1533833  55.9878903  24.6970113  42.5303833  55.3758903
  25.4000113  42.5063833  55.7218903  29.5140113  54.3393833  57.2058903
  30.1790113  54.1913833  56.6608903  29.8740113  54.2563833  57.9958903
  29.6660113  54.3053833  57.2418903  19.9420113  53.8483833  68.2708903
  20.2340113  53.7813833  69.0908903  19.3160113  53.2433833  68.2258903
  19.8930113  53.7493833  68.3858903  32.3030113  38.7073833  66.3658903
  33.0600113  38.7793833  65.9378903  32.3660113  37.9343833  66.7648903
  32.4240113  38.6043833  66.3608903  14.8560113  40.0053833  70.2628903
  14.8520113  40.5923833  70.9088903  15.4500113  40.3173833  69.7058903
  14.9430113  40.1383833  70.2758903  27.1940113  50.3393833  70.8048903
  27.1600113  50.7213833  71.5888903  28.0480113  50.2973833  70.6338903
  27.3150113  50.3893833  70.8958903  24.3320113  50.5363833  55.5548903
  24.1510113  51.0813833  56.2118903  25.0980113  50.8263833  55.2538903
  24.4180113  50.6603833  55.6078903  27.8390113  38.4323833  56.6088903
  28.3790113  37.7503833  56.6848903  27.9010113  38.8303833  57.3828903
  27.9280113  38.3903833  56.7348903  15.7930113  39.6003833  59.1778903
  15.6790113  38.7363833  59.2088903  15.3180113  39.8943833  59.8478903
  15.7060113  39.5163833  59.2808903  17.9350113  52.0103833  67.3928903
  17.2370113  51.5023833  67.5188903  18.1950113  51.8053833  66.5848903
  17.8700113  51.9053833  67.2918903  25.0970113  40.8083833  57.9228903
  24.5890113  40.1463833  57.6688903  25.1490113  41.3123833  57.2128903
  25.0300113  40.7853833  57.7808903  25.6460113  53.5033833  68.3028903
  26.4140113  53.4233833  67.8968903  25.0630113  53.3823833  67.6648903
  25.6730113  53.4733833  68.1488903  25.0970113  37.7493833  57.8138903
  24.6420113  37.3473833  57.1878903  25.8700113  37.9043833  57.4388903
  25.1440113  37.7133833  57.6658903  31.9230113  54.1063833  61.2038903
  31.4680113  54.8233833  61.4048903  31.3090113  53.5353833  60.9618903
  31.7650113  54.1283833  61.1978903  23.6950113  40.1163833  62.3358903
  23.7690113  40.6843833  61.6778903  23.8160113  40.6083833  63.0458903
  23.7230113  40.2733833  62.3438903  28.9200113  49.9513833  60.7478903
  29.6210113  49.4693833  60.9368903  28.2600113  49.3823833  60.7928903
  28.9260113  49.7963833  60.7818903  19.2960113  50.8613833  69.9598903
  20.1370113  50.9243833  69.7378903  19.2590113  51.2583833  70.7358903
  19.4150113  50.9293833  70.0418903  18.3030113  35.9393833  60.6838903
  18.8390113  36.6273833  60.6738903  18.3060113  35.6653833  59.8558903
  18.3820113  36.0003833  60.5598903  21.2590113  46.3723833  64.7088903
  21.4310113  46.1623833  65.5378903  20.6040113  45.8383833  64.4928903
  21.1880113  46.2623833  64.7998903  27.4870113  40.2863833  68.2238903
  27.3920113  40.6053833  69.0298903  26.8940113  39.6473833  68.1858903
  27.3850113  40.2383833  68.3378903  22.0090113  46.3103833  67.2988903
  22.0620113  47.1573833  67.5008903  21.7240113  45.9403833  68.0358903
  21.9750113  46.3803833  67.4368903  28.1860113  47.0053833  66.4288903
  27.6720113  46.5933833  66.9998903  28.0600113  47.8493833  66.6098903
  28.0920113  47.0693833  66.5398903  14.8300113  50.6813833  73.5098903
  15.5860113  51.0303833  73.7678903  15.0070113  49.8283833  73.4528903
  14.9680113  50.6063833  73.5398903  31.2070113  40.4663833  69.3678903
  31.9790113  40.2413833  69.7048903  30.7320113  40.6833833  70.0678903
  31.2510113  40.4653833  69.5208903  18.7510113  39.7493833  62.3378903
  19.0230113  39.3193833  61.6298903  18.5750113  39.1133833  62.9088903
  18.7650113  39.5923833  62.3178903  31.4390113  47.4443833  56.5558903
  31.5580113  47.1573833  57.3708903  32.2460113  47.4653833  56.2258903
  31.5750113  47.4053833  56.6278903  18.5750113  47.1763833  61.8868903
  19.4260113  47.0963833  61.7138903  18.2180113  46.4943833  61.4748903
  18.6480113  47.0633833  61.7998903  17.3420113  53.9013833  63.1238903
  16.6690113  53.4033833  62.8788903  17.7450113  54.0863833  62.3728903
  17.3020113  53.8553833  62.9768903  16.8920113  40.8513833  65.4198903
  17.7350113  41.0713833  65.3768903  16.5030113  41.4243833  64.8888903
  16.9590113  40.9683833  65.3348903  33.6730113  51.9533833  70.8098903
  32.9910113  52.2633833  70.3628903  33.3040113  51.4953833  71.4548903
  33.5170113  51.9313833  70.8388903  29.3340113  43.9813833  56.1408903
  29.1140113  44.7123833  55.7188903  28.8860113  44.0323833  56.8878903
  29.2350113  44.0963833  56.1888903  20.9430113  47.1833833  60.1218903
  21.6560113  47.6783833  60.2118903  21.1650113  46.6163833  59.4958903
  21.0810113  47.1723833  60.0428903  15.0990113  48.8263833  63.4418903
  14.4320113  49.3143833  63.7178903  15.7790113  49.3713833  63.4708903
  15.1010113  48.9783833  63.4868903  22.7460113  42.5363833  73.5378903
  22.2620113  43.1133833  73.9798903  22.7180113  42.8313833  72.7168903
  22.6700113  42.6653833  73.4818903  33.8440113  43.2203833  68.1498903
  34.0590113  42.4203833  67.8738903  32.9940113  43.2803833  67.9608903
  33.7500113  43.1113833  68.0808903  15.1650113  45.5103833  58.5448903
  14.9800113  44.6713833  58.6968903  15.8240113  45.4743833  57.9748903
  15.2350113  45.3813833  58.4828903  25.4660113  50.8863833  62.4488903
  24.9430113  51.5203833  62.1558903  25.7760113  50.5223833  61.7198903
  25.4340113  50.9263833  62.2978903  15.3370113  49.6743833  58.1198903
  15.8890113  50.2433833  58.4838903  15.1050113  49.1593833  58.7848903
  15.3840113  49.6823833  58.2718903  19.5410113  48.6743833  65.2088903
  20.0080113  48.9633833  65.8868903  20.1130113  48.1963833  64.7548903
  19.6950113  48.6463833  65.2418903  27.9770113  40.6883833  62.9458903
  28.3210113  40.8403833  63.7328903  27.5240113  39.9503833  63.0588903
  27.9610113  40.6013833  63.0788903  15.1670113  48.1233833  55.7478903
  15.9230113  47.6913833  55.8058903  15.1820113  48.6553833  56.4388903
  15.2810113  48.1383833  55.8588903  16.1070113  46.3443833  63.7528903
  16.5380113  46.2153833  63.0058903  15.9020113  47.1923833  63.7268903
  16.1400113  46.4503833  63.6388903  22.4530113  39.9083833  57.4028903
  22.4510113  39.7913833  56.5378903  22.2720113  40.7563833  57.4948903
  22.4260113  40.0163833  57.2888903  31.5070113  52.3353833  68.8998903
  30.8360113  52.8493833  69.1178903  31.5700113  52.4353833  68.0358903
  31.4170113  52.4263833  68.8048903  20.1910113  49.8603833  62.0348903
  20.3170113  50.7033833  62.2218903  20.8590113  49.4613833  62.4308903
  20.3090113  49.9263833  62.1208903  18.3210113  43.3433833  71.8968903
  17.7850113  42.8373833  72.3648903  18.3410113  42.9533833  71.1168903
  18.2440113  43.2103833  71.8508903  18.8060113  42.7403833  57.0368903
  18.6780113  42.2923833  57.7748903  18.2240113  42.3983833  56.4848903
  18.7010113  42.6233833  57.0648903  18.9730113  44.5703833  63.6358903
  18.1920113  44.5113833  63.2528903  19.0450113  43.8183833  64.0728903
  18.8680113  44.4513833  63.6438903  19.4030113  44.3073833  67.1038903
  19.4280113  43.6323833  66.5528903  18.7570113  44.8033833  66.7918903
  19.3120113  44.2803833  66.9768903  29.2980113  42.0203833  65.4998903
  28.6360113  42.3483833  65.9628903  29.4850113  42.6543833  64.9308903
  29.2280113  42.1623833  65.4838903  23.5030113  53.0843833  66.4958903
  23.2260113  52.4433833  65.9728903  23.2950113  53.8103833  66.0578903
  23.4320113  53.0973833  66.3538903  25.9430113  37.9263833  68.9288903
  26.0920113  37.1013833  68.6858903  26.3220113  37.9813833  69.7128903
  26.0210113  37.8123833  69.0088903  27.4910113  39.9893833  59.0108903
  27.9810113  40.7063833  58.9338903  26.7010113  40.2503833  58.7478903
  27.4470113  40.1333833  58.9608903  17.2020113  45.6623833  72.6628903
  17.1650113  46.1633833  71.9488903  17.5330113  44.9103833  72.3678903
  17.2450113  45.6243833  72.5138903  28.8050113  47.8673833  70.9208903
  29.2890113  48.5853833  71.0188903  29.1990113  47.4403833  70.2698903
  28.9350113  47.9103833  70.8388903  23.1010113  50.7123833  72.0978903
  23.4550113  50.5343833  72.8748903  22.6650113  49.9833833  71.8988903
  23.0890113  50.5783833  72.1838903  24.0730113  41.4593833  64.7358903
  24.5530113  42.1583833  64.9438903  24.4460113  40.8123833  65.1868903
  24.1990113  41.4673833  64.8328903  26.2620113  44.6283833  57.0098903
  26.2540113  45.3503833  56.5198903  25.6230113  44.7633833  57.5868903
  26.1670113  44.7553833  57.0228903  31.2340113  48.4983833  60.9908903
  31.5900113  48.1483833  61.7058903  31.2260113  47.8373833  60.4208903
  31.2860113  48.3483833  61.0118903  27.2790113  51.5643833  64.8348903
  26.6760113  51.2683833  64.2778903  27.8240113  52.0163833  64.3258903
  27.2700113  51.5873833  64.6768903  27.2920113  48.4153833  64.2348903
  26.4950113  48.6393833  64.5088903  27.5500113  47.8213833  64.8198903
  27.2120113  48.3603833  64.3618903  21.1840113  53.2273833  58.6828903
  21.0370113  52.4513833  59.0538903  21.8730113  53.0803833  58.1678903
  21.2640113  53.0903833  58.6618903  20.8550113  36.9703833  56.6708903
  20.9520113  36.8633833  57.5318903  20.1470113  37.4763833  56.6058903
  20.7650113  37.0293833  56.7888903  23.4760113  52.7433833  57.0848903
  24.0980113  52.9063833  57.6748903  23.5120113  53.4343833  56.5528903
  23.5730113  52.8693833  57.0938903  30.5520113  46.4133833  69.0808903
  30.6070113  46.5383833  68.2188903  31.3050113  46.7333833  69.3828903
  30.6710113  46.4783833  68.9978903  26.7430113  51.7623833  73.3578903
  26.9070113  52.0453833  74.1668903  27.0060113  52.4233833  72.8528903
  26.8060113  51.9023833  73.4028903  31.5840113  36.7113833  72.0678903
  30.9470113  36.3113833  71.6258903  31.6100113  36.2803833  72.8258903
  31.4940113  36.5893833  72.1138903  17.9770113  45.2773833  57.9138903
  18.3010113  44.4983833  57.6918903  18.6230113  45.6453833  58.3688903
  18.1200113  45.2163833  57.9478903  26.2830113  46.2193833  68.6808903
  26.1280113  46.8293833  69.2848903  26.8170113  45.6613833  69.0868903
  26.3390113  46.2273833  68.8298903  14.9740113  36.9383833  58.8818903
  15.1030113  36.2303833  58.3898903  14.6070113  36.6203833  59.6068903
  14.9390113  36.7863833  58.9168903  24.6670113  44.6193833  59.3388903
  24.7260113  45.2693833  59.9178903  24.4780113  43.9233833  59.8298903
  24.6480113  44.6123833  59.4968903  29.8930113  48.9483833  65.2078903
  29.4140113  49.2463833  64.5418903  29.5370113  48.1723833  65.3858903
  29.7700113  48.8773833  65.1358903  19.1630113  39.1363833  55.8508903
  18.6520113  39.1893833  55.1448903  19.9470113  39.3763833  55.5548903
  19.2030113  39.1793833  55.7028903  23.8900113  46.6663833  63.7698903
  23.0430113  46.4723833  63.8508903  24.2140113  46.5013833  64.5628903
  23.8120113  46.6133833  63.8988903  20.6420113  53.3963833  54.6558903
  21.0810113  52.6993833  54.9438903  20.8490113  54.0203833  55.2288903
  20.7380113  53.3853833  54.7828903  17.7380113  46.3593833  66.0858903
  18.4600113  46.8473833  66.0488903  17.4680113  46.3293833  65.2568903
  17.8050113  46.4273833  65.9578903  20.9680113  41.5303833  62.8208903
  21.8140113  41.3403833  62.9188903  20.5980113  40.7533833  62.6828903
  21.0380113  41.3873833  62.8148903  33.5850113  53.1143833  57.1478903
  34.2790113  52.6473833  56.8998903  33.0460113  52.5163833  57.4848903
  33.6080113  52.9563833  57.1608903  15.7890113  42.8683833  59.4758903
  16.2780113  42.5763833  60.1368903  15.9180113  42.2753833  58.8488903
  15.8800113  42.7373833  59.4808903  30.8240113  45.8903833  66.3268903
  30.8170113  45.1143833  66.7248903  29.9830113  46.1243833  66.3198903
  30.6990113  45.8103833  66.3848903  20.3140113  44.3023833  54.9618903
  19.7040113  43.8973833  55.4358903  19.9280113  44.4203833  54.1888903
  20.1670113  44.2593833  54.9178903  17.1330113  47.4113833  70.3638903
  16.7120113  46.8933833  69.8028903  16.7810113  48.1973833  70.2208903
  17.0190113  47.4513833  70.2598903  32.0800113  45.9613833  63.7638903
  31.7940113  46.3623833  64.4838903  32.9400113  45.8993833  63.8908903
  32.1650113  46.0113833  63.8888903  21.7690113  42.7633833  57.6718903
  22.0410113  43.5893833  57.7388903  20.9060113  42.8383833  57.5758903
  21.6820113  42.8963833  57.6668903  29.7420113  39.8853833  72.3038903
  29.2170113  40.3443833  72.8278903  29.3810113  39.0903833  72.2978903
  29.6110113  39.8353833  72.3798903  15.2490113  38.7333833  64.2078903
  15.2930113  39.0773833  63.4068903  16.0040113  38.9703833  64.5748903
  15.3670113  38.8193833  64.1438903  33.2110113  51.5943833  64.2928903
  33.5010113  51.8513833  63.5118903  33.9060113  51.6903833  64.8118903
  33.3570113  51.6463833  64.2538903  28.2340113  43.4543833  72.3798903
  28.3070113  43.5583833  73.2428903  27.6000113  44.0123833  72.1588903
  28.1510113  43.5523833  72.4748903  30.5020113  43.7733833  70.7448903
  30.8210113  44.5593833  70.9478903  30.1320113  43.5033833  71.4878903
  30.4950113  43.8493833  70.8848903  29.8160113  50.1973833  56.2748903
  30.1500113  49.3913833  56.3098903  29.0610113  50.1253833  56.7048903
  29.7540113  50.0673833  56.3438903  30.2980113  42.0313833  61.9338903
  29.5530113  41.7083833  62.2518903  30.3000113  42.8573833  62.2138903
  30.1880113  42.1053833  62.0218903  33.2000113  44.3153833  73.4798903
  33.1480113  43.9743833  72.6788903  33.9370113  44.7823833  73.4578903
  33.3010113  44.3343833  73.3578903  32.7380113  47.9913833  69.6858903
  33.3660113  47.4423833  69.4298903  32.6770113  48.5563833  69.0238903
  32.8220113  47.9943833  69.5498903  27.1900113  48.0723833  55.6778903
  27.8740113  47.5583833  55.5088903  26.7730113  48.1183833  54.9128903
  27.2290113  48.0033833  55.5398903  21.8720113  49.2223833  66.9818903
  21.5740113  49.8143833  67.5488903  21.9270113  49.6643833  66.2328903
  21.8360113  49.3753833  66.9548903  19.8510113  48.1723833  70.3798903
  19.0450113  47.8823833  70.5468903  19.7620113  49.0403833  70.3858903
  19.7190113  48.2573833  70.4048903  29.2100113  38.3613833  69.3948903
  29.9540113  38.8133833  69.3318903  28.6440113  38.8313833  68.9258903
  29.2370113  38.4983833  69.3168903  24.3880113  45.6453833  66.4728903
  24.8640113  46.0193833  67.1008903  23.5650113  45.7793833  66.7318903
  24.3370113  45.7203833  66.6038903  21.0980113  41.2483833  69.2138903
  21.2590113  40.5043833  69.6408903  21.0530113  40.9993833  68.3788903
  21.1150113  41.1013833  69.1538903  23.6520113  53.0383833  61.7008903
  24.1980113  53.7173833  61.7548903  23.3020113  53.1203833  60.9058903
  23.6810113  53.1513833  61.5908903  30.4950113  36.3413833  67.0648903
  30.2150113  37.1663833  67.0208903  31.2110113  36.3943833  67.5608903
  30.5600113  36.4713833  67.1318903  22.8500113  37.0563833  69.0938903
  23.5550113  37.3763833  68.6918903  23.0910113  36.2493833  69.3208903
  22.9890113  36.9843833  69.0678903  21.8350113  51.2663833  65.0898903
  21.2110113  51.8483833  64.9078903  22.0830113  50.9803833  64.3038903
  21.7790113  51.3103833  64.9468903  26.1440113  47.9003833  72.0788903
  26.9010113  48.1863833  71.7528903  25.5970113  47.9523833  71.4008903
  26.1750113  47.9503833  71.9298903  30.0530113  50.4503833  70.5828903
  30.3990113  50.7203833  71.3368903  30.3470113  51.0323833  70.0028903
  30.1480113  50.5763833  70.6088903  31.9160113  42.5963833  55.9218903
  32.2940113  43.2733833  55.5218903  31.0740113  42.8203833  55.9528903
  31.8470113  42.7293833  55.8668903  23.4290113  46.0423833  55.0048903
  22.6240113  45.8653833  54.7198903  23.3960113  46.8933833  55.1968903
  23.3050113  46.1413833  54.9918903  19.3590113  42.1093833  65.1548903
  19.7990113  42.0063833  64.4088903  19.9040113  41.7963833  65.7598903
  19.5040113  42.0483833  65.1338903  27.3750113  41.2113833  70.7468903
  26.7270113  41.6813833  71.0948903  27.9400113  41.1223833  71.4058903
  27.3630113  41.2673833  70.8958903  27.0630113  42.7483833  67.0448903
  27.3650113  43.1683833  67.7478903  27.0990113  41.9083833  67.2768903
  27.1130113  42.6863833  67.1828903  24.4880113  52.9153833  70.9698903
  24.9660113  52.3153833  70.5538903  24.1370113  52.4723833  71.6348903
  24.5070113  52.7613833  71.0068903  29.6110113  42.1953833  59.2968903
  29.8180113  41.9943833  60.1208903  30.3670113  42.4633833  58.9548903
  29.7530113  42.2053833  59.3678903  22.9060113  37.0943833  65.2018903
  22.0800113  36.9453833  65.4388903  22.8660113  37.1293833  64.3308903
  22.7780113  37.0773833  65.1078903  31.0760113  46.2223833  59.1508903
  31.5520113  45.4933833  59.1028903  30.2550113  45.9363833  59.0748903
  31.0250113  46.0723833  59.1318903  24.5470113  48.1343833  69.9898903
  23.7520113  48.0703833  70.3408903  24.6180113  48.9813833  69.7948903
  24.4400113  48.2493833  70.0128903  15.4710113  37.4923833  71.2368903
  15.3310113  38.2873833  70.9058903  14.6850113  37.2493833  71.5258903
  15.3340113  37.5743833  71.2308903  20.3770113  54.3413833  65.3068903
  20.3880113  54.4003833  66.1768903  19.9520113  53.5943833  65.1568903
  20.3160113  54.2393833  65.4128903  18.5350113  40.2363833  58.4618903
  18.6610113  39.9073833  57.6638903  17.7230113  39.9873833  58.6608903
  18.4340113  40.1513833  58.3738903  27.2920113  47.3893833  61.5058903
  27.3680113  47.7303833  62.3048903  27.4610113  46.5423833  61.6268903
  27.3280113  47.3143833  61.6418903  24.8140113  46.6633833  61.0708903
  24.5160113  46.3483833  61.8278903  25.5090113  47.1363833  61.3058903
  24.8730113  46.6863833  61.2178903  25.0360113  50.7813833  69.0978903
  25.7230113  50.6673833  69.6228903  25.1700113  51.5723833  68.7538903
  25.1570113  50.8813833  69.1248903  33.2120113  43.3903833  70.9088903
  32.3570113  43.2683833  71.0348903  33.3650113  42.9953833  70.1458903
  33.1080113  43.3133833  70.8148903  27.7250113  44.0553833  69.4848903
  27.4700113  43.3363833  69.9068903  28.5460113  44.1713833  69.7548903
  27.8090113  43.9663833  69.5868903  17.1410113  53.8393833  70.7488903
  16.4870113  53.2703833  70.8468903  16.7660113  54.6123833  70.8998903
  16.9890113  53.8693833  70.7858903  25.6590113  45.2453833  72.6718903
  25.9820113  45.9313833  72.2398903  24.9550113  45.5683833  73.0738903
  25.6020113  45.3943833  72.6668903  28.7430113  53.6193833  63.6008903
  28.2920113  54.2623833  63.9798903  29.4510113  53.5403833  64.1058903
  28.7810113  53.7023833  63.7318903  25.4440113  48.7093833  66.5308903
  24.7500113  49.1113833  66.8738903  26.1210113  49.1423833  66.8698903
  25.4410113  48.8323833  66.6318903  30.8210113  51.3023833  73.1108903
  31.5970113  50.9123833  73.1938903  30.3520113  50.9663833  73.7658903
  30.8660113  51.1953833  73.2198903  18.5120113  42.2473833  68.8778903
  18.8870113  42.8663833  68.3908903  19.1860113  41.7733833  69.1628903
  18.6670113  42.2693833  68.8478903  16.2870113  40.6953833  68.1528903
  16.3640113  40.5263833  67.2998903  17.0330113  41.1013833  68.3498903
  16.4080113  40.7303833  68.0558903  31.8460113  43.3353833  58.5928903
  31.9490113  43.2773833  57.7288903  32.5870113  43.0033833  58.9108903
  31.9710113  43.2783833  58.5118903  18.8410113  38.1053833  70.5638903
  18.7600113  37.2613833  70.7698903  18.5270113  38.1493833  69.7508903
  18.7830113  37.9873833  70.4738903  25.7660113  50.3003833  59.6998903
  25.5610113  51.1333833  59.5408903  24.9910113  49.9183833  59.8218903
  25.6210113  50.3673833  59.6948903  30.9480113  43.4813833  67.9488903
  30.9460113  42.6183833  68.0728903  31.0150113  43.8053833  68.7558903
  30.9580113  43.4013833  68.0858903  15.6840113  45.9213833  68.3768903
  16.0040113  46.1403833  67.5958903  15.5840113  45.0563833  68.3218903
  15.7160113  45.8263833  68.2538903  17.1400113  41.8573833  54.9948903
  16.4680113  41.8713833  55.5508903  17.2350113  41.0093833  54.8108903
  17.0550113  41.7343833  55.0498903  26.8270113  38.2813833  71.7308903
  26.9190113  38.9933833  72.2248903  26.1900113  37.8363833  72.1278903
  26.7460113  38.3203833  71.8628903  25.8210113  38.4713833  62.5848903
  25.1210113  38.9893833  62.5288903  25.8590113  38.0913833  61.8008903
  25.7230113  38.4923833  62.4608903  21.1280113  50.5623833  56.1088903
  21.5690113  50.6423833  56.8568903  20.3230113  50.3463833  56.3668903
  21.0740113  50.5423833  56.2578903  29.4190113  38.9873833  65.3848903
  30.2740113  39.0863833  65.5298903  29.0500113  39.5403833  65.9498903
  29.4910113  39.0843833  65.4898903  20.4470113  45.2133833  69.7618903
  20.0510113  45.9873833  69.8368903  20.0410113  44.8403833  69.0858903
  20.3290113  45.2723833  69.6728903  29.7230113  44.2673833  63.8758903
  30.3890113  44.8083833  64.0358903  29.3780113  44.5783833  63.1368903
  29.7700113  44.3933833  63.7908903  30.0360113  52.3333833  59.6828903
  29.8620113  51.6793833  60.2328903  30.7490113  52.0623833  59.2598903
  30.1160113  52.1963833  59.7018903  18.4570113  49.6323833  56.7098903
  18.2130113  49.3253833  57.4898903  18.4240113  48.9293833  56.1938903
  18.4160113  49.4833833  56.7488903  21.2760113  47.8773833  55.4528903
  20.4580113  47.6093833  55.5928903  21.2480113  48.7293833  55.6378903
  21.1510113  47.9643833  55.5008903  20.8760113  38.1903833  67.2118903
  20.0120113  38.2743833  67.2918903  21.0960113  37.6763833  67.8808903
  20.7810113  38.1273833  67.3228903  32.8940113  36.8253833  68.5408903
  32.8420113  36.7813833  69.4108903  33.5810113  36.3223833  68.3508903
  32.9880113  36.7453833  68.6408903  24.9790113  38.9383833  65.5858903
  24.2420113  38.4843833  65.6988903  25.5500113  38.5363833  66.1088903
  24.9540113  38.8113833  65.6798903  27.7110113  49.7863833  67.3738903
  27.9170113  50.0873833  68.1658903  27.6500113  50.5083833  66.8888903
  27.7320113  49.9373833  67.4188903  27.2450113  54.0003833  71.6198903
  26.4920113  53.9823833  71.1788903  27.4130113  54.8523833  71.7038903
  27.1590113  54.1233833  71.5668903  22.4820113  43.2673833  70.7898903
  22.1600113  42.6913833  70.2198903  22.1230113  44.0223833  70.5438903
  22.3820113  43.2933833  70.6698903  23.2780113  36.5193833  55.4168903
  23.3560113  36.7663833  54.5838903  22.5350113  36.8963833  55.6748903
  23.1800113  36.6113833  55.3318903  32.5230113  48.4253833  66.8318903
  32.4910113  47.5633833  66.6968903  31.8300113  48.7273833  66.3978903
  32.4160113  48.3423833  66.7478903  20.9170113  53.6233833  71.0378903
  20.9580113  53.7493833  71.9008903  21.5680113  53.0633833  70.8818903
  21.0190113  53.5593833  71.1428903  30.6280113  51.6853833  65.6288903
  31.1550113  51.6023833  64.9378903  30.2370113  50.9073833  65.6828903
  30.6480113  51.5583833  65.5348903  18.0960113  38.2733833  67.8598903
  17.7530113  37.5063833  67.6258903  17.4010113  38.7973833  67.9238903
  17.9430113  38.2373833  67.8348903  27.1420113  37.1293833  64.8368903
  27.8120113  37.6733833  64.9638903  26.6390113  37.5533833  64.2638903
  27.1670113  37.2723833  64.7708903  18.5100113  52.0063833  72.3978903
  19.1050113  52.4373833  72.8698903  18.1460113  52.6303833  71.9088903
  18.5440113  52.1623833  72.3948903  26.5010113  42.9373833  62.3298903
  27.0520113  42.3303833  62.6298903  26.0760113  43.2003833  63.0448903
  26.5200113  42.8863833  62.4788903  16.7490113  41.5873833  61.8158903
  16.3810113  41.8893833  62.5468903  17.2830113  40.9583833  62.0998903
  16.7730113  41.5393833  61.9658903  16.4370113  49.9953833  69.3268903
  15.8630113  50.4113833  69.8358903  17.1700113  50.4603833  69.4218903
  16.4610113  50.1253833  69.4158903  28.4710113  44.7683833  58.8918903
  28.5390113  43.9183833  59.0728903  27.6480113  44.8543833  58.6138903
  28.3590113  44.6553833  58.8778903  18.2230113  53.2623833  58.1018903
  18.0780113  53.4183833  57.2558903  19.0890113  53.3413833  58.1798903
  18.3300113  53.2973833  57.9888903  22.3900113  45.6593833  57.8298903
  22.4900113  45.7983833  56.9748903  23.2080113  45.5993833  58.1258903
  22.5250113  45.6703833  57.7468903  31.5500113  53.7233833  55.3098903
  32.1870113  53.5893833  55.8908903  31.2090113  52.9293833  55.1928903
  31.5940113  53.5863833  55.3778903  31.7450113  46.1413833  72.0428903
  32.3790113  45.9713833  72.6168903  32.1620113  46.5443833  71.3908903
  31.9000113  46.1763833  72.0318903  27.6250113  49.9883833  57.6318903
  27.3740113  49.8603833  58.4578903  27.3080113  49.2933833  57.2108903
  27.5410113  49.8673833  57.6918903  32.3700113  40.7053833  72.7808903
  32.1740113  41.3493833  73.3358903  31.6480113  40.2153833  72.7728903
  32.2350113  40.7283833  72.8618903  32.2690113  41.6463833  65.7518903
  31.4360113  41.8963833  65.6798903  32.2130113  40.8063833  65.9808903
  32.1380113  41.5593833  65.7748903  21.5290113  38.6343833  70.9458903
  21.7630113  38.0583833  70.3328903  20.6870113  38.4533833  71.0868903
  21.4390113  38.5223833  70.8758903  29.1560113  46.2523833  73.3978903
  30.0270113  46.2163833  73.3618903  28.9370113  46.6723833  72.6658903
  29.2530113  46.3083833  73.2848903  18.9100113  52.0773833  64.5788903
  18.8310113  51.2673833  64.2628903  18.4660113  52.5643833  64.0068903
  18.8330113  52.0293833  64.4478903  24.5110113  48.1963833  57.0618903
  25.2280113  47.8493833  56.7058903  24.4770113  48.9963833  56.7138903
  24.6120113  48.2633833  56.9578903  16.4820113  54.3213833  68.1598903
  16.9750113  54.2653833  68.8778903  16.6700113  53.5883833  67.7248903
  16.5830113  54.2043833  68.2018903  15.5980113  47.8933833  41.4276493
  15.1570113  48.0113833  42.1706493  15.3150113  47.1183833  41.1426493
  15.4910113  47.7963833  41.4956493  31.8730113  51.1943833  38.9426493
  32.5740113  50.6753833  38.9386493  31.2860113  50.7493833  38.4736493
  31.8900113  51.0513833  38.8726493  15.3410113  41.6853833  37.9346493
  14.5630113  41.8473833  37.5746493  15.3800113  40.8143833  37.9566493
  15.2320113  41.5803833  37.8846493  18.4800113  46.9483833  36.6066493
  18.0880113  46.5773833  35.9206493  18.4000113  46.3503833  37.2356493
  18.4100113  46.8053833  36.5976493  18.1070113  48.5893833  40.5066493
  18.7150113  48.4193833  41.1096493  17.3560113  48.4493833  40.9276493
  18.0860113  48.5433833  40.6576493  22.3890113  37.9243833  40.4556493
  22.3190113  38.6013833  39.9096493  23.1300113  37.5363833  40.2066493
  22.4880113  37.9673833  40.3376493  16.9980113  51.6803833  36.5836493
  17.4650113  51.7643833  35.8516493  17.4530113  51.1023833  37.0526493
  17.1340113  51.6073833  36.5446493  15.5380113  50.6283833  47.6826493
  15.6670113  50.3483833  48.4986493  14.9280113  50.0873833  47.3736493
  15.4670113  50.5073833  47.7576493  22.1120113  48.1533833  52.7496493
  21.8760113  48.1503833  53.5896493  21.3640113  48.0053833  52.3256493
  21.9660113  48.1303833  52.8106493  16.9840113  45.1493833  41.8846493
  16.5220113  44.7573833  41.2576493  17.6840113  44.6363833  41.9766493
  17.0190113  45.0163833  41.8056493  22.0940113  51.3453833  50.0126493
  22.2320113  52.1053833  49.6056493  22.8850113  50.9803833  50.0396493
  22.2310113  51.4043833  49.9566493  18.9850113  43.2493833  41.9076493
  19.8020113  43.0623833  42.1506493  18.5080113  42.6353833  42.3036493
  19.0350113  43.1313833  42.0026493  23.2460113  48.6793833  40.7286493
  23.5770113  48.0353833  41.2146493  23.4860113  48.4683833  39.9176493
  23.3300113  48.5533833  40.6806493  19.5820113  38.3433833  41.1736493
  19.2860113  38.8443833  40.5236493  20.4490113  38.4213833  41.1166493
  19.6660113  38.4293833  41.0696493  22.5610113  37.4853833  43.3966493
  22.6340113  38.3453833  43.5256493  22.5230113  37.4103833  42.5286493
  22.5660113  37.6013833  43.2876493  27.2340113  40.4113833  35.6956493
  26.7840113  41.0923833  36.0026493  27.3480113  39.9073833  36.3986493
  27.1850113  40.4373833  35.8446493  15.4400113  42.9103833  44.8976493
  15.1840113  43.7413833  44.8226493  14.7760113  42.5273833  45.3146493
  15.3040113  42.9763833  44.9486493  15.3500113  52.6203833  42.7976493
  14.7580113  53.1783833  42.4846493  15.7760113  52.3513833  42.0856493
  15.3260113  52.6623833  42.6466493  21.1900113  50.4643833  40.2776493
  20.6110113  50.1893833  40.8696493  21.8140113  49.8553833  40.3026493
  21.1970113  50.3343833  40.3686493  27.3330113  52.7523833  37.7996493
  28.0600113  53.2243833  37.9016493  27.5620113  51.9583833  38.0796493
  27.4750113  52.7053833  37.8566493  25.5010113  53.1443833  39.7896493
  25.7150113  53.6713833  40.4516493  26.2680113  52.9703833  39.4106493
  25.6460113  53.1963833  39.8316493  18.4690113  37.7273833  45.3886493
  17.9480113  37.0993833  45.0806493  19.0600113  37.2903833  45.8596493
  18.4800113  37.5693833  45.4126493  21.7750113  39.8603833  54.6866493
  21.8920113  39.4063833  53.9506493  22.0630113  40.6583833  54.4836493
  21.8350113  39.9113833  54.5476493  16.8950113  51.2903833  40.7286493
  17.5510113  50.7153833  40.7436493  17.2840113  52.0393833  40.5076493
  17.0500113  51.3153833  40.6986493  27.9400113  53.1543833  48.0946493
  28.6840113  53.6103833  48.0846493  27.8190113  52.9403833  47.2576493
  28.0320113  53.1903833  47.9696493  17.5080113  39.4573833  53.6706493
  16.7300113  39.0673833  53.5986493  17.9990113  39.0453833  53.0796493
  17.4650113  39.3383833  53.5726493  17.7130113  49.7773833  44.2286493
  18.1360113  49.4213833  43.5546493  18.0370113  49.3553833  44.9206493
  17.8230113  49.6623833  44.2316493  20.9440113  52.6293833  43.5246493
  21.7880113  52.7333833  43.3296493  20.6470113  53.4473833  43.5926493
  21.0250113  52.7653833  43.5056493  25.4730113  42.3653833  36.7326493
  25.7540113  43.1533833  36.9816493  24.6970113  42.5303833  36.3696493
  25.4000113  42.5063833  36.7156493  29.5140113  54.3393833  38.1996493
  30.1790113  54.1913833  37.6546493  29.8740113  54.2563833  38.9896493
  29.6660113  54.3053833  38.2356493  19.9420113  53.8483833  49.2646493
  20.2340113  53.7813833  50.0846493  19.3160113  53.2433833  49.2196493
  19.8930113  53.7493833  49.3796493  14.8560113  40.0053833  51.2566493
  14.8520113  40.5923833  51.9026493  15.4500113  40.3173833  50.6996493
  14.9430113  40.1383833  51.2696493  27.1940113  50.3393833  51.7986493
  27.1600113  50.7213833  52.5826493  28.0480113  50.2973833  51.6276493
  27.3150113  50.3893833  51.8896493  24.3320113  50.5363833  36.5486493
  24.1510113  51.0813833  37.2056493  25.0980113  50.8263833  36.2476493
  24.4180113  50.6603833  36.6016493  15.7930113  39.6003833  40.1716493
  15.6790113  38.7363833  40.2026493  15.3180113  39.8943833  40.8416493
  15.7060113  39.5163833  40.2746493  17.9350113  52.0103833  48.3866493
  17.2370113  51.5023833  48.5126493  18.1950113  51.8053833  47.5786493
  17.8700113  51.9053833  48.2856493  25.6460113  53.5033833  49.2966493
  26.4140113  53.4233833  48.8906493  25.0630113  53.3823833  48.6586493
  25.6730113  53.4733833  49.1426493  31.9230113  54.1063833  42.1976493
  31.4680113  54.8233833  42.3986493  31.3090113  53.5353833  41.9556493
  31.7650113  54.1283833  42.1916493  19.2960113  50.8613833  50.9536493
  20.1370113  50.9243833  50.7316493  19.2590113  51.2583833  51.7296493
  19.4150113  50.9293833  51.0356493  18.3030113  35.9393833  41.6776493
  18.8390113  36.6273833  41.6676493  18.3060113  35.6653833  40.8496493
  18.3820113  36.0003833  41.5536493  14.8300113  50.6813833  54.5036493
  15.5860113  51.0303833  54.7616493  15.0070113  49.8283833  54.4466493
  14.9680113  50.6063833  54.5336493  18.7510113  39.7493833  43.3316493
  19.0230113  39.3193833  42.6236493  18.5750113  39.1133833  43.9026493
  18.7650113  39.5923833  43.3116493  31.4390113  47.4443833  37.5496493
  31.5580113  47.1573833  38.3646493  32.2460113  47.4653833  37.2196493
  31.5750113  47.4053833  37.6216493  18.5750113  47.1763833  42.8806493
  19.4260113  47.0963833  42.7076493  18.2180113  46.4943833  42.4686493
  18.6480113  47.0633833  42.7936493  17.3420113  53.9013833  44.1176493
  16.6690113  53.4033833  43.8726493  17.7450113  54.0863833  43.3666493
  17.3020113  53.8553833  43.9706493  16.8920113  40.8513833  46.4136493
  17.7350113  41.0713833  46.3706493  16.5030113  41.4243833  45.8826493
  16.9590113  40.9683833  46.3286493  33.6730113  51.9533833  51.8036493
  32.9910113  52.2633833  51.3566493  33.3040113  51.4953833  52.4486493
  33.5170113  51.9313833  51.8326493  15.0990113  48.8263833  44.4356493
  14.4320113  49.3143833  44.7116493  15.7790113  49.3713833  44.4646493
  15.1010113  48.9783833  44.4806493  22.7460113  42.5363833  54.5316493
  22.2620113  43.1133833  54.9736493  22.7180113  42.8313833  53.7106493
  22.6700113  42.6653833  54.4756493  15.1650113  45.5103833  39.5386493
  14.9800113  44.6713833  39.6906493  15.8240113  45.4743833  38.9686493
  15.2350113  45.3813833  39.4766493  15.3370113  49.6743833  39.1136493
  15.8890113  50.2433833  39.4776493  15.1050113  49.1593833  39.7786493
  15.3840113  49.6823833  39.2656493  19.5410113  48.6743833  46.2026493
  20.0080113  48.9633833  46.8806493  20.1130113  48.1963833  45.7486493
  19.6950113  48.6463833  46.2356493  15.1670113  48.1233833  36.7416493
  15.9230113  47.6913833  36.7996493  15.1820113  48.6553833  37.4326493
  15.2810113  48.1383833  36.8526493  16.1070113  46.3443833  44.7466493
  16.5380113  46.2153833  43.9996493  15.9020113  47.1923833  44.7206493
  16.1400113  46.4503833  44.6326493  22.4530113  39.9083833  38.3966493
  22.4510113  39.7913833  37.5316493  22.2720113  40.7563833  38.4886493
  22.4260113  40.0163833  38.2826493  31.5070113  52.3353833  49.8936493
  30.8360113  52.8493833  50.1116493  31.5700113  52.4353833  49.0296493
  31.4170113  52.4263833  49.7986493  20.1910113  49.8603833  43.0286493
  20.3170113  50.7033833  43.2156493  20.8590113  49.4613833  43.4246493
  20.3090113  49.9263833  43.1146493  18.3210113  43.3433833  52.8906493
  17.7850113  42.8373833  53.3586493  18.3410113  42.9533833  52.1106493
  18.2440113  43.2103833  52.8446493  18.8060113  42.7403833  38.0306493
  18.6780113  42.2923833  38.7686493  18.2240113  42.3983833  37.4786493
  18.7010113  42.6233833  38.0586493  18.9730113  44.5703833  44.6296493
  18.1920113  44.5113833  44.2466493  19.0450113  43.8183833  45.0666493
  18.8680113  44.4513833  44.6376493  19.4030113  44.3073833  48.0976493
  19.4280113  43.6323833  47.5466493  18.7570113  44.8033833  47.7856493
  19.3120113  44.2803833  47.9706493  23.5030113  53.0843833  47.4896493
  23.2260113  52.4433833  46.9666493  23.2950113  53.8103833  47.0516493
  23.4320113  53.0973833  47.3476493  17.2020113  45.6623833  53.6566493
  17.1650113  46.1633833  52.9426493  17.5330113  44.9103833  53.3616493
  17.2450113  45.6243833  53.5076493  28.8050113  47.8673833  51.9146493
  29.2890113  48.5853833  52.0126493  29.1990113  47.4403833  51.2636493
  28.9350113  47.9103833  51.8326493  23.1010113  50.7123833  53.0916493
  23.4550113  50.5343833  53.8686493  22.6650113  49.9833833  52.8926493
  23.0890113  50.5783833  53.1776493  26.2620113  44.6283833  38.0036493
  26.2540113  45.3503833  37.5136493  25.6230113  44.7633833  38.5806493
  26.1670113  44.7553833  38.0166493  21.1840113  53.2273833  39.6766493
  21.0370113  52.4513833  40.0476493  21.8730113  53.0803833  39.1616493
  21.2640113  53.0903833  39.6556493  20.8550113  36.9703833  37.6646493
  20.9520113  36.8633833  38.5256493  20.1470113  37.4763833  37.5996493
  20.7650113  37.0293833  37.7826493  23.4760113  52.7433833  38.0786493
  24.0980113  52.9063833  38.6686493  23.5120113  53.4343833  37.5466493
  23.5730113  52.8693833  38.0876493  26.7430113  51.7623833  54.3516493
  26.9070113  52.0453833  55.1606493  27.0060113  52.4233833  53.8466493
  26.8060113  51.9023833  54.3966493  17.9770113  45.2773833  38.9076493
  18.3010113  44.4983833  38.6856493  18.6230113  45.6453833  39.3626493
  18.1200113  45.2163833  38.9416493  14.9740113  36.9383833  39.8756493
  15.1030113  36.2303833  39.3836493  14.6070113  36.6203833  40.6006493
  14.9390113  36.7863833  39.9106493  19.1630113  39.1363833  36.8446493
  18.6520113  39.1893833  36.1386493  19.9470113  39.3763833  36.5486493
  19.2030113  39.1793833  36.6966493  20.6420113  53.3963833  35.6496493
  21.0810113  52.6993833  35.9376493  20.8490113  54.0203833  36.2226493
  20.7380113  53.3853833  35.7766493  17.7380113  46.3593833  47.0796493
  18.4600113  46.8473833  47.0426493  17.4680113  46.3293833  46.2506493
  17.8050113  46.4273833  46.9516493  20.9680113  41.5303833  43.8146493
  21.8140113  41.3403833  43.9126493  20.5980113  40.7533833  43.6766493
  21.0380113  41.3873833  43.8086493  33.5850113  53.1143833  38.1416493
  34.2790113  52.6473833  37.8936493  33.0460113  52.5163833  38.4786493
  33.6080113  52.9563833  38.1546493  15.7890113  42.8683833  40.4696493
  16.2780113  42.5763833  41.1306493  15.9180113  42.2753833  39.8426493
  15.8800113  42.7373833  40.4746493  20.3140113  44.3023833  35.9556493
  19.7040113  43.8973833  36.4296493  19.9280113  44.4203833  35.1826493
  20.1670113  44.2593833  35.9116493  17.1330113  47.4113833  51.3576493
  16.7120113  46.8933833  50.7966493  16.7810113  48.1973833  51.2146493
  17.0190113  47.4513833  51.2536493  21.7690113  42.7633833  38.6656493
  22.0410113  43.5893833  38.7326493  20.9060113  42.8383833  38.5696493
  21.6820113  42.8963833  38.6606493  15.2490113  38.7333833  45.2016493
  15.2930113  39.0773833  44.4006493  16.0040113  38.9703833  45.5686493
  15.3670113  38.8193833  45.1376493  33.2110113  51.5943833  45.2866493
  33.5010113  51.8513833  44.5056493  33.9060113  51.6903833  45.8056493
  33.3570113  51.6463833  45.2476493  28.2340113  43.4543833  53.3736493
  28.3070113  43.5583833  54.2366493  27.6000113  44.0123833  53.1526493
  28.1510113  43.5523833  53.4686493  30.5020113  43.7733833  51.7386493
  30.8210113  44.5593833  51.9416493  30.1320113  43.5033833  52.4816493
  30.4950113  43.8493833  51.8786493  29.8160113  50.1973833  37.2686493
  30.1500113  49.3913833  37.3036493  29.0610113  50.1253833  37.6986493
  29.7540113  50.0673833  37.3376493  33.2000113  44.3153833  54.4736493
  33.1480113  43.9743833  53.6726493  33.9370113  44.7823833  54.4516493
  33.3010113  44.3343833  54.3516493  32.7380113  47.9913833  50.6796493
  33.3660113  47.4423833  50.4236493  32.6770113  48.5563833  50.0176493
  32.8220113  47.9943833  50.5436493  27.1900113  48.0723833  36.6716493
  27.8740113  47.5583833  36.5026493  26.7730113  48.1183833  35.9066493
  27.2290113  48.0033833  36.5336493  21.8720113  49.2223833  47.9756493
  21.5740113  49.8143833  48.5426493  21.9270113  49.6643833  47.2266493
  21.8360113  49.3753833  47.9486493  23.6520113  53.0383833  42.6946493
  24.1980113  53.7173833  42.7486493  23.3020113  53.1203833  41.8996493
  23.6810113  53.1513833  42.5846493  21.8350113  51.2663833  46.0836493
  21.2110113  51.8483833  45.9016493  22.0830113  50.9803833  45.2976493
  21.7790113  51.3103833  45.9406493  26.1440113  47.9003833  53.0726493
  26.9010113  48.1863833  52.7466493  25.5970113  47.9523833  52.3946493
  26.1750113  47.9503833  52.9236493  30.0530113  50.4503833  51.5766493
  30.3990113  50.7203833  52.3306493  30.3470113  51.0323833  50.9966493
  30.1480113  50.5763833  51.6026493  23.4290113  46.0423833  35.9986493
  22.6240113  45.8653833  35.7136493  23.3960113  46.8933833  36.1906493
  23.3050113  46.1413833  35.9856493  19.3590113  42.1093833  46.1486493
  19.7990113  42.0063833  45.4026493  19.9040113  41.7963833  46.7536493
  19.5040113  42.0483833  46.1276493  24.4880113  52.9153833  51.9636493
  24.9660113  52.3153833  51.5476493  24.1370113  52.4723833  52.6286493
  24.5070113  52.7613833  52.0006493  31.0760113  46.2223833  40.1446493
  31.5520113  45.4933833  40.0966493  30.2550113  45.9363833  40.0686493
  31.0250113  46.0723833  40.1256493  24.5470113  48.1343833  50.9836493
  23.7520113  48.0703833  51.3346493  24.6180113  48.9813833  50.7886493
  24.4400113  48.2493833  51.0066493  15.4710113  37.4923833  52.2306493
  15.3310113  38.2873833  51.8996493  14.6850113  37.2493833  52.5196493
  15.3340113  37.5743833  52.2246493  20.3770113  54.3413833  46.3006493
  20.3880113  54.4003833  47.1706493  19.9520113  53.5943833  46.1506493
  20.3160113  54.2393833  46.4066493  18.5350113  40.2363833  39.4556493
  18.6610113  39.9073833  38.6576493  17.7230113  39.9873833  39.6546493
  18.4340113  40.1513833  39.3676493  25.0360113  50.7813833  50.0916493
  25.7230113  50.6673833  50.6166493  25.1700113  51.5723833  49.7476493
  25.1570113  50.8813833  50.1186493  33.2120113  43.3903833  51.9026493
  32.3570113  43.2683833  52.0286493  33.3650113  42.9953833  51.1396493
  33.1080113  43.3133833  51.8086493  17.1410113  53.8393833  51.7426493
  16.4870113  53.2703833  51.8406493  16.7660113  54.6123833  51.8936493
  16.9890113  53.8693833  51.7796493  25.6590113  45.2453833  53.6656493
  25.9820113  45.9313833  53.2336493  24.9550113  45.5683833  54.0676493
  25.6020113  45.3943833  53.6606493  28.7430113  53.6193833  44.5946493
  28.2920113  54.2623833  44.9736493  29.4510113  53.5403833  45.0996493
  28.7810113  53.7023833  44.7256493  30.8210113  51.3023833  54.1046493
  31.5970113  50.9123833  54.1876493  30.3520113  50.9663833  54.7596493
  30.8660113  51.1953833  54.2136493  18.5120113  42.2473833  49.8716493
  18.8870113  42.8663833  49.3846493  19.1860113  41.7733833  50.1566493
  18.6670113  42.2693833  49.8416493  16.2870113  40.6953833  49.1466493
  16.3640113  40.5263833  48.2936493  17.0330113  41.1013833  49.3436493
  16.4080113  40.7303833  49.0496493  18.8410113  38.1053833  51.5576493
  18.7600113  37.2613833  51.7636493  18.5270113  38.1493833  50.7446493
  18.7830113  37.9873833  51.4676493  15.6840113  45.9213833  49.3706493
  16.0040113  46.1403833  48.5896493  15.5840113  45.0563833  49.3156493
  15.7160113  45.8263833  49.2476493  17.1400113  41.8573833  35.9886493
  16.4680113  41.8713833  36.5446493  17.2350113  41.0093833  35.8046493
  17.0550113  41.7343833  36.0436493  21.1280113  50.5623833  37.1026493
  21.5690113  50.6423833  37.8506493  20.3230113  50.3463833  37.3606493
  21.0740113  50.5423833  37.2516493  20.4470113  45.2133833  50.7556493
  20.0510113  45.9873833  50.8306493  20.0410113  44.8403833  50.0796493
  20.3290113  45.2723833  50.6666493  30.0360113  52.3333833  40.6766493
  29.8620113  51.6793833  41.2266493  30.7490113  52.0623833  40.2536493
  30.1160113  52.1963833  40.6956493  18.4570113  49.6323833  37.7036493
  18.2130113  49.3253833  38.4836493  18.4240113  48.9293833  37.1876493
  18.4160113  49.4833833  37.7426493  21.2760113  47.8773833  36.4466493
  20.4580113  47.6093833  36.5866493  21.2480113  48.7293833  36.6316493
  21.1510113  47.9643833  36.4946493  27.2450113  54.0003833  52.6136493
  26.4920113  53.9823833  52.1726493  27.4130113  54.8523833  52.6976493
  27.1590113  54.1233833  52.5606493  23.2780113  36.5193833  36.4106493
  23.3560113  36.7663833  35.5776493  22.5350113  36.8963833  36.6686493
  23.1800113  36.6113833  36.3256493  32.5230113  48.4253833  47.8256493
  32.4910113  47.5633833  47.6906493  31.8300113  48.7273833  47.3916493
  32.4160113  48.3423833  47.7416493  20.9170113  53.6233833  52.0316493
  20.9580113  53.7493833  52.8946493  21.5680113  53.0633833  51.8756493
  21.0190113  53.5593833  52.1366493  30.6280113  51.6853833  46.6226493
  31.1550113  51.6023833  45.9316493  30.2370113  50.9073833  46.6766493
  30.6480113  51.5583833  46.5286493  18.0960113  38.2733833  48.8536493
  17.7530113  37.5063833  48.6196493  17.4010113  38.7973833  48.9176493
  17.9430113  38.2373833  48.8286493  18.5100113  52.0063833  53.3916493
  19.1050113  52.4373833  53.8636493  18.1460113  52.6303833  52.9026493
  18.5440113  52.1623833  53.3886493  16.7490113  41.5873833  42.8096493
  16.3810113  41.8893833  43.5406493  17.2830113  40.9583833  43.0936493
  16.7730113  41.5393833  42.9596493  16.4370113  49.9953833  50.3206493
  15.8630113  50.4113833  50.8296493  17.1700113  50.4603833  50.4156493
  16.4610113  50.1253833  50.4096493  18.2230113  53.2623833  39.0956493
  18.0780113  53.4183833  38.2496493  19.0890113  53.3413833  39.1736493
  18.3300113  53.2973833  38.9826493  22.3900113  45.6593833  38.8236493
  22.4900113  45.7983833  37.9686493  23.2080113  45.5993833  39.1196493
  22.5250113  45.6703833  38.7406493  31.5500113  53.7233833  36.3036493
  32.1870113  53.5893833  36.8846493  31.2090113  52.9293833  36.1866493
  31.5940113  53.5863833  36.3716493  31.7450113  46.1413833  53.0366493
  32.3790113  45.9713833  53.6106493  32.1620113  46.5443833  52.3846493
  31.9000113  46.1763833  53.0256493  27.6250113  49.9883833  38.6256493
  27.3740113  49.8603833  39.4516493  27.3080113  49.2933833  38.2046493
  27.5410113  49.8673833  38.6856493  29.1560113  46.2523833  54.3916493
  30.0270113  46.2163833  54.3556493  28.9370113  46.6723833  53.6596493
  29.2530113  46.3083833  54.2786493  18.9100113  52.0773833  45.5726493
  18.8310113  51.2673833  45.2566493  18.4660113  52.5643833  45.0006493
  18.8330113  52.0293833  45.4416493  24.5110113  48.1963833  38.0556493
  25.2280113  47.8493833  37.6996493  24.4770113  48.9963833  37.7076493
  24.6120113  48.2633833  37.9516493  16.4820113  54.3213833  49.1536493
  16.9750113  54.2653833  49.8716493  16.6700113  53.5883833  48.7186493
  16.5830113  54.2043833  49.1956493  25.9200113  36.8373833  22.2944083
  25.6750113  37.3253833  21.6144083  26.7830113  36.7643833  22.1944083
  26.0110113  36.8983833  22.1794083  25.7290113  43.7533833  26.9654083
  25.2050113  44.3493833  27.3284083  26.1260113  43.3853833  27.6494083
  25.7100113  43.7873833  27.1204083  15.5980113  47.8933833  22.4214083
  15.1570113  48.0113833  23.1644083  15.3150113  47.1183833  22.1364083
  15.4910113  47.7963833  22.4894083  31.8730113  51.1943833  19.9364083
  32.5740113  50.6753833  19.9324083  31.2860113  50.7493833  19.4674083
  31.8900113  51.0513833  19.8664083  15.3410113  41.6853833  18.9284083
  14.5630113  41.8473833  18.5684083  15.3800113  40.8143833  18.9504083
  15.2320113  41.5803833  18.8784083  18.4800113  46.9483833  17.6004083
  18.0880113  46.5773833  16.9144083  18.4000113  46.3503833  18.2294083
  18.4100113  46.8053833  17.5914083  28.4000113  44.8203833  23.6414083
  28.4800113  44.8243833  22.7724083  27.8160113  44.1883833  23.7904083
  28.3250113  44.7273833  23.5354083  18.1070113  48.5893833  21.5004083
  18.7150113  48.4193833  22.1034083  17.3560113  48.4493833  21.9214083
  18.0860113  48.5433833  21.6514083  22.3890113  37.9243833  21.4494083
  22.3190113  38.6013833  20.9034083  23.1300113  37.5363833  21.2004083
  22.4880113  37.9673833  21.3314083  16.9980113  51.6803833  17.5774083
  17.4650113  51.7643833  16.8454083  17.4530113  51.1023833  18.0464083
  17.1340113  51.6073833  17.5384083  15.5380113  50.6283833  28.6764083
  15.6670113  50.3483833  29.4924083  14.9280113  50.0873833  28.3674083
  15.4670113  50.5073833  28.7514083  22.1120113  48.1533833  33.7434083
  21.8760113  48.1503833  34.5834083  21.3640113  48.0053833  33.3194083
  21.9660113  48.1303833  33.8044083  16.9840113  45.1493833  22.8784083
  16.5220113  44.7573833  22.2514083  17.6840113  44.6363833  22.9704083
  17.0190113  45.0163833  22.7994083  21.4920113  40.7593833  28.2254083
  22.1700113  40.7773833  27.6764083  21.4470113  39.9233833  28.4704083
  21.5850113  40.6383833  28.1804083  22.0940113  51.3453833  31.0064083
  22.2320113  52.1053833  30.5994083  22.8850113  50.9803833  31.0334083
  22.2310113  51.4043833  30.9504083  18.9850113  43.2493833  22.9014083
  19.8020113  43.0623833  23.1444083  18.5080113  42.6353833  23.2974083
  19.0350113  43.1313833  22.9964083  23.1890113  49.2303833  25.5114083
  23.5370113  48.4313833  25.5414083  23.8540113  49.7343833  25.2564083
  23.3390113  49.1863833  25.4784083  23.2460113  48.6793833  21.7224083
  23.5770113  48.0353833  22.2084083  23.4860113  48.4683833  20.9114083
  23.3300113  48.5533833  21.6744083  25.2140113  42.8103833  33.0614083
  24.3660113  42.7113833  32.8834083  25.2430113  43.5553833  33.5154083
  25.0930113  42.9063833  33.1024083  19.5820113  38.3433833  22.1674083
  19.2860113  38.8443833  21.5174083  20.4490113  38.4213833  22.1104083
  19.6660113  38.4293833  22.0634083  29.7720113  35.7703833  32.1754083
  29.6140113  36.5393833  31.7934083  29.0000113  35.5503833  32.5194083
  29.6340113  35.8513833  32.1704083  22.5610113  37.4853833  24.3904083
  22.6340113  38.3453833  24.5194083  22.5230113  37.4103833  23.5224083
  22.5660113  37.6013833  24.2814083  27.2340113  40.4113833  16.6894083
  26.7840113  41.0923833  16.9964083  27.3480113  39.9073833  17.3924083
  27.1850113  40.4373833  16.8384083  15.4400113  42.9103833  25.8914083
  15.1840113  43.7413833  25.8164083  14.7760113  42.5273833  26.3084083
  15.3040113  42.9763833  25.9424083  15.3500113  52.6203833  23.7914083
  14.7580113  53.1783833  23.4784083  15.7760113  52.3513833  23.0794083
  15.3260113  52.6623833  23.6404083  21.1900113  50.4643833  21.2714083
  20.6110113  50.1893833  21.8634083  21.8140113  49.8553833  21.2964083
  21.1970113  50.3343833  21.3624083  27.3330113  52.7523833  18.7934083
  28.0600113  53.2243833  18.8954083  27.5620113  51.9583833  19.0734083
  27.4750113  52.7053833  18.8504083  25.5010113  53.1443833  20.7834083
  25.7150113  53.6713833  21.4454083  26.2680113  52.9703833  20.4044083
  25.6460113  53.1963833  20.8254083  18.4690113  37.7273833  26.3824083
  17.9480113  37.0993833  26.0744083  19.0600113  37.2903833  26.8534083
  18.4800113  37.5693833  26.4064083  21.7750113  39.8603833  35.6804083
  21.8920113  39.4063833  34.9444083  22.0630113  40.6583833  35.4774083
  21.8350113  39.9113833  35.5414083  16.8950113  51.2903833  21.7224083
  17.5510113  50.7153833  21.7374083  17.2840113  52.0393833  21.5014083
  17.0500113  51.3153833  21.6924083  32.6280113  40.3843833  22.9844083
  32.2820113  41.0623833  23.4104083  31.9920113  39.7863833  23.0004083
  32.4830113  40.3963833  23.0494083  27.9400113  53.1543833  29.0884083
  28.6840113  53.6103833  29.0784083  27.8190113  52.9403833  28.2514083
  28.0320113  53.1903833  28.9634083  17.5080113  39.4573833  34.6644083
  16.7300113  39.0673833  34.5924083  17.9990113  39.0453833  34.0734083
  17.4650113  39.3383833  34.5664083  17.7130113  49.7773833  25.2224083
  18.1360113  49.4213833  24.5484083  18.0370113  49.3553833  25.9144083
  17.8230113  49.6623833  25.2254083  20.9440113  52.6293833  24.5184083
  21.7880113  52.7333833  24.3234083  20.6470113  53.4473833  24.5864083
  21.0250113  52.7653833  24.4994083  24.1570113  37.1003833  33.8324083
  24.3350113  36.2913833  33.5574083  24.0140113  37.5413833  33.0934083
  24.1620113  37.0463833  33.6824083  24.7510113  42.0263833  22.6054083
  25.0380113  41.7943833  21.8154083  25.4830113  42.1053833  23.0744083
  24.9010113  42.0033833  22.5584083  25.4730113  42.3653833  17.7264083
  25.7540113  43.1533833  17.9754083  24.6970113  42.5303833  17.3634083
  25.4000113  42.5063833  17.7094083  29.5140113  54.3393833  19.1934083
  30.1790113  54.1913833  18.6484083  29.8740113  54.2563833  19.9834083
  29.6660113  54.3053833  19.2294083  19.9420113  53.8483833  30.2584083
  20.2340113  53.7813833  31.0784083  19.3160113  53.2433833  30.2134083
  19.8930113  53.7493833  30.3734083  32.3030113  38.7073833  28.3534083
  33.0600113  38.7793833  27.9254083  32.3660113  37.9343833  28.7524083
  32.4240113  38.6043833  28.3484083  14.8560113  40.0053833  32.2504083
  14.8520113  40.5923833  32.8964083  15.4500113  40.3173833  31.6934083
  14.9430113  40.1383833  32.2634083  27.1940113  50.3393833  32.7924083
  27.1600113  50.7213833  33.5764083  28.0480113  50.2973833  32.6214083
  27.3150113  50.3893833  32.8834083  24.3320113  50.5363833  17.5424083
  24.1510113  51.0813833  18.1994083  25.0980113  50.8263833  17.2414083
  24.4180113  50.6603833  17.5954083  27.8390113  38.4323833  18.5964083
  28.3790113  37.7503833  18.6724083  27.9010113  38.8303833  19.3704083
  27.9280113  38.3903833  18.7224083  15.7930113  39.6003833  21.1654083
  15.6790113  38.7363833  21.1964083  15.3180113  39.8943833  21.8354083
  15.7060113  39.5163833  21.2684083  17.9350113  52.0103833  29.3804083
  17.2370113  51.5023833  29.5064083  18.1950113  51.8053833  28.5724083
  17.8700113  51.9053833  29.2794083  25.0970113  40.8083833  19.9104083
  24.5890113  40.1463833  19.6564083  25.1490113  41.3123833  19.2004083
  25.0300113  40.7853833  19.7684083  25.6460113  53.5033833  30.2904083
  26.4140113  53.4233833  29.8844083  25.0630113  53.3823833  29.6524083
  25.6730113  53.4733833  30.1364083  25.0970113  37.7493833  19.8014083
  24.6420113  37.3473833  19.1754083  25.8700113  37.9043833  19.4264083
  25.1440113  37.7133833  19.6534083  31.9230113  54.1063833  23.1914083
  31.4680113  54.8233833  23.3924083  31.3090113  53.5353833  22.9494083
  31.7650113  54.1283833  23.1854083  23.6950113  40.1163833  24.3234083
  23.7690113  40.6843833  23.6654083  23.8160113  40.6083833  25.0334083
  23.7230113  40.2733833  24.3314083  28.9200113  49.9513833  22.7354083
  29.6210113  49.4693833  22.9244083  28.2600113  49.3823833  22.7804083
  28.9260113  49.7963833  22.7694083  19.2960113  50.8613833  31.9474083
  20.1370113  50.9243833  31.7254083  19.2590113  51.2583833  32.7234083
  19.4150113  50.9293833  32.0294083  18.3030113  35.9393833  22.6714083
  18.8390113  36.6273833  22.6614083  18.3060113  35.6653833  21.8434083
  18.3820113  36.0003833  22.5474083  21.2590113  46.3723833  26.6964083
  21.4310113  46.1623833  27.5254083  20.6040113  45.8383833  26.4804083
  21.1880113  46.2623833  26.7874083  27.4870113  40.2863833  30.2114083
  27.3920113  40.6053833  31.0174083  26.8940113  39.6473833  30.1734083
  27.3850113  40.2383833  30.3254083  22.0090113  46.3103833  29.2864083
  22.0620113  47.1573833  29.4884083  21.7240113  45.9403833  30.0234083
  21.9750113  46.3803833  29.4244083  28.1860113  47.0053833  28.4164083
  27.6720113  46.5933833  28.9874083  28.0600113  47.8493833  28.5974083
  28.0920113  47.0693833  28.5274083  28.7430113  36.2303833  23.0474083
  28.7920113  35.9123833  23.8584083  29.0660113  35.5863833  22.5544083
  28.7980113  36.0883833  23.0944083  14.8300113  50.6813833  35.4974083
  15.5860113  51.0303833  35.7554083  15.0070113  49.8283833  35.4404083
  14.9680113  50.6063833  35.5274083  31.2070113  40.4663833  31.3554083
  31.9790113  40.2413833  31.6924083  30.7320113  40.6833833  32.0554083
  31.2510113  40.4653833  31.5084083  18.7510113  39.7493833  24.3254083
  19.0230113  39.3193833  23.6174083  18.5750113  39.1133833  24.8964083
  18.7650113  39.5923833  24.3054083  31.4390113  47.4443833  18.5434083
  31.5580113  47.1573833  19.3584083  32.2460113  47.4653833  18.2134083
  31.5750113  47.4053833  18.6154083  18.5750113  47.1763833  23.8744083
  19.4260113  47.0963833  23.7014083  18.2180113  46.4943833  23.4624083
  18.6480113  47.0633833  23.7874083  17.3420113  53.9013833  25.1114083
  16.6690113  53.4033833  24.8664083  17.7450113  54.0863833  24.3604083
  17.3020113  53.8553833  24.9644083  16.8920113  40.8513833  27.4074083
  17.7350113  41.0713833  27.3644083  16.5030113  41.4243833  26.8764083
  16.9590113  40.9683833  27.3224083  33.6730113  51.9533833  32.7974083
  32.9910113  52.2633833  32.3504083  33.3040113  51.4953833  33.4424083
  33.5170113  51.9313833  32.8264083  29.3340113  43.9813833  18.1284083
  29.1140113  44.7123833  17.7064083  28.8860113  44.0323833  18.8754083
  29.2350113  44.0963833  18.1764083  20.9430113  47.1833833  22.1094083
  21.6560113  47.6783833  22.1994083  21.1650113  46.6163833  21.4834083
  21.0810113  47.1723833  22.0304083  33.5210113  38.8423833  17.5814083
  32.8590113  38.2743833  17.6044083  33.3280113  39.3543833  16.9014083
  33.3950113  38.8343833  17.4844083  15.0990113  48.8263833  25.4294083
  14.4320113  49.3143833  25.7054083  15.7790113  49.3713833  25.4584083
  15.1010113  48.9783833  25.4744083  22.7460113  42.5363833  35.5254083
  22.2620113  43.1133833  35.9674083  22.7180113  42.8313833  34.7044083
  22.6700113  42.6653833  35.4694083  33.8440113  43.2203833  30.1374083
  34.0590113  42.4203833  29.8614083  32.9940113  43.2803833  29.9484083
  33.7500113  43.1113833  30.0684083  15.1650113  45.5103833  20.5324083
  14.9800113  44.6713833  20.6844083  15.8240113  45.4743833  19.9624083
  15.2350113  45.3813833  20.4704083  31.5230113  38.4003833  19.8604083
  32.2690113  37.9933833  20.0594083  31.7860113  39.1153833  19.4354083
  31.6720113  38.4463833  19.8274083  25.4660113  50.8863833  24.4364083
  24.9430113  51.5203833  24.1434083  25.7760113  50.5223833  23.7074083
  25.4340113  50.9263833  24.2854083  15.3370113  49.6743833  20.1074083
  15.8890113  50.2433833  20.4714083  15.1050113  49.1593833  20.7724083
  15.3840113  49.6823833  20.2594083  19.5410113  48.6743833  27.1964083
  20.0080113  48.9633833  27.8744083  20.1130113  48.1963833  26.7424083
  19.6950113  48.6463833  27.2294083  27.9770113  40.6883833  24.9334083
  28.3210113  40.8403833  25.7204083  27.5240113  39.9503833  25.0464083
  27.9610113  40.6013833  25.0664083  15.1670113  48.1233833  17.7354083
  15.9230113  47.6913833  17.7934083  15.1820113  48.6553833  18.4264083
  15.2810113  48.1383833  17.8464083  16.1070113  46.3443833  25.7404083
  16.5380113  46.2153833  24.9934083  15.9020113  47.1923833  25.7144083
  16.1400113  46.4503833  25.6264083  22.4530113  39.9083833  19.3904083
  22.4510113  39.7913833  18.5254083  22.2720113  40.7563833  19.4824083
  22.4260113  40.0163833  19.2764083  31.5070113  52.3353833  30.8874083
  30.8360113  52.8493833  31.1054083  31.5700113  52.4353833  30.0234083
  31.4170113  52.4263833  30.7924083  20.1910113  49.8603833  24.0224083
  20.3170113  50.7033833  24.2094083  20.8590113  49.4613833  24.4184083
  20.3090113  49.9263833  24.1084083  18.3210113  43.3433833  33.8844083
  17.7850113  42.8373833  34.3524083  18.3410113  42.9533833  33.1044083
  18.2440113  43.2103833  33.8384083  18.8060113  42.7403833  19.0244083
  18.6780113  42.2923833  19.7624083  18.2240113  42.3983833  18.4724083
  18.7010113  42.6233833  19.0524083  18.9730113  44.5703833  25.6234083
  18.1920113  44.5113833  25.2404083  19.0450113  43.8183833  26.0604083
  18.8680113  44.4513833  25.6314083  19.4030113  44.3073833  29.0914083
  19.4280113  43.6323833  28.5404083  18.7570113  44.8033833  28.7794083
  19.3120113  44.2803833  28.9644083  29.2980113  42.0203833  27.4874083
  28.6360113  42.3483833  27.9504083  29.4850113  42.6543833  26.9184083
  29.2280113  42.1623833  27.4714083  23.5030113  53.0843833  28.4834083
  23.2260113  52.4433833  27.9604083  23.2950113  53.8103833  28.0454083
  23.4320113  53.0973833  28.3414083  25.9430113  37.9263833  30.9164083
  26.0920113  37.1013833  30.6734083  26.3220113  37.9813833  31.7004083
  26.0210113  37.8123833  30.9964083  27.4910113  39.9893833  20.9984083
  27.9810113  40.7063833  20.9214083  26.7010113  40.2503833  20.7354083
  27.4470113  40.1333833  20.9484083  17.2020113  45.6623833  34.6504083
  17.1650113  46.1633833  33.9364083  17.5330113  44.9103833  34.3554083
  17.2450113  45.6243833  34.5014083  28.8050113  47.8673833  32.9084083
  29.2890113  48.5853833  33.0064083  29.1990113  47.4403833  32.2574083
  28.9350113  47.9103833  32.8264083  23.1010113  50.7123833  34.0854083
  23.4550113  50.5343833  34.8624083  22.6650113  49.9833833  33.8864083
  23.0890113  50.5783833  34.1714083  24.0730113  41.4593833  26.7234083
  24.5530113  42.1583833  26.9314083  24.4460113  40.8123833  27.1744083
  24.1990113  41.4673833  26.8204083  26.2620113  44.6283833  18.9974083
  26.2540113  45.3503833  18.5074083  25.6230113  44.7633833  19.5744083
  26.1670113  44.7553833  19.0104083  31.2340113  48.4983833  22.9784083
  31.5900113  48.1483833  23.6934083  31.2260113  47.8373833  22.4084083
  31.2860113  48.3483833  22.9994083  27.2790113  51.5643833  26.8224083
  26.6760113  51.2683833  26.2654083  27.8240113  52.0163833  26.3134083
  27.2700113  51.5873833  26.6644083  27.2920113  48.4153833  26.2224083
  26.4950113  48.6393833  26.4964083  27.5500113  47.8213833  26.8074083
  27.2120113  48.3603833  26.3494083  21.1840113  53.2273833  20.6704083
  21.0370113  52.4513833  21.0414083  21.8730113  53.0803833  20.1554083
  21.2640113  53.0903833  20.6494083  20.8550113  36.9703833  18.6584083
  20.9520113  36.8633833  19.5194083  20.1470113  37.4763833  18.5934083
  20.7650113  37.0293833  18.7764083  23.4760113  52.7433833  19.0724083
  24.0980113  52.9063833  19.6624083  23.5120113  53.4343833  18.5404083
  23.5730113  52.8693833  19.0814083  30.5520113  46.4133833  31.0684083
  30.6070113  46.5383833  30.2064083  31.3050113  46.7333833  31.3704083
  30.6710113  46.4783833  30.9854083  26.7430113  51.7623833  35.3454083
  26.9070113  52.0453833  36.1544083  27.0060113  52.4233833  34.8404083
  26.8060113  51.9023833  35.3904083  31.5840113  36.7113833  34.0554083
  30.9470113  36.3113833  33.6134083  31.6100113  36.2803833  34.8134083
  31.4940113  36.5893833  34.1014083  17.9770113  45.2773833  19.9014083
  18.3010113  44.4983833  19.6794083  18.6230113  45.6453833  20.3564083
  18.1200113  45.2163833  19.9354083  26.2830113  46.2193833  30.6684083
  26.1280113  46.8293833  31.2724083  26.8170113  45.6613833  31.0744083
  26.3390113  46.2273833  30.8174083  14.9740113  36.9383833  20.8694083
  15.1030113  36.2303833  20.3774083  14.6070113  36.6203833  21.5944083
  14.9390113  36.7863833  20.9044083  24.6670113  44.6193833  21.3264083
  24.7260113  45.2693833  21.9054083  24.4780113  43.9233833  21.8174083
  24.6480113  44.6123833  21.4844083  29.8930113  48.9483833  27.1954083
  29.4140113  49.2463833  26.5294083  29.5370113  48.1723833  27.3734083
  29.7700113  48.8773833  27.1234083  19.1630113  39.1363833  17.8384083
  18.6520113  39.1893833  17.1324083  19.9470113  39.3763833  17.5424083
  19.2030113  39.1793833  17.6904083  23.8900113  46.6663833  25.7574083
  23.0430113  46.4723833  25.8384083  24.2140113  46.5013833  26.5504083
  23.8120113  46.6133833  25.8864083  20.6420113  53.3963833  16.6434083
  21.0810113  52.6993833  16.9314083  20.8490113  54.0203833  17.2164083
  20.7380113  53.3853833  16.7704083  17.7380113  46.3593833  28.0734083
  18.4600113  46.8473833  28.0364083  17.4680113  46.3293833  27.2444083
  17.8050113  46.4273833  27.9454083  20.9680113  41.5303833  24.8084083
  21.8140113  41.3403833  24.9064083  20.5980113  40.7533833  24.6704083
  21.0380113  41.3873833  24.8024083  33.5850113  53.1143833  19.1354083
  34.2790113  52.6473833  18.8874083  33.0460113  52.5163833  19.4724083
  33.6080113  52.9563833  19.1484083  15.7890113  42.8683833  21.4634083
  16.2780113  42.5763833  22.1244083  15.9180113  42.2753833  20.8364083
  15.8800113  42.7373833  21.4684083  30.8240113  45.8903833  28.3144083
  30.8170113  45.1143833  28.7124083  29.9830113  46.1243833  28.3074083
  30.6990113  45.8103833  28.3724083  20.3140113  44.3023833  16.9494083
  19.7040113  43.8973833  17.4234083  19.9280113  44.4203833  16.1764083
  20.1670113  44.2593833  16.9054083  17.1330113  47.4113833  32.3514083
  16.7120113  46.8933833  31.7904083  16.7810113  48.1973833  32.2084083
  17.0190113  47.4513833  32.2474083  32.0800113  45.9613833  25.7514083
  31.7940113  46.3623833  26.4714083  32.9400113  45.8993833  25.8784083
  32.1650113  46.0113833  25.8764083  21.7690113  42.7633833  19.6594083
  22.0410113  43.5893833  19.7264083  20.9060113  42.8383833  19.5634083
  21.6820113  42.8963833  19.6544083  15.2490113  38.7333833  26.1954083
  15.2930113  39.0773833  25.3944083  16.0040113  38.9703833  26.5624083
  15.3670113  38.8193833  26.1314083  33.2110113  51.5943833  26.2804083
  33.5010113  51.8513833  25.4994083  33.9060113  51.6903833  26.7994083
  33.3570113  51.6463833  26.2414083  28.2340113  43.4543833  34.3674083
  28.3070113  43.5583833  35.2304083  27.6000113  44.0123833  34.1464083
  28.1510113  43.5523833  34.4624083  30.5020113  43.7733833  32.7324083
  30.8210113  44.5593833  32.9354083  30.1320113  43.5033833  33.4754083
  30.4950113  43.8493833  32.8724083  29.8160113  50.1973833  18.2624083
  30.1500113  49.3913833  18.2974083  29.0610113  50.1253833  18.6924083
  29.7540113  50.0673833  18.3314083  30.2980113  42.0313833  23.9214083
  29.5530113  41.7083833  24.2394083  30.3000113  42.8573833  24.2014083
  30.1880113  42.1053833  24.0094083  33.2000113  44.3153833  35.4674083
  33.1480113  43.9743833  34.6664083  33.9370113  44.7823833  35.4454083
  33.3010113  44.3343833  35.3454083  32.7380113  47.9913833  31.6734083
  33.3660113  47.4423833  31.4174083  32.6770113  48.5563833  31.0114083
  32.8220113  47.9943833  31.5374083  27.1900113  48.0723833  17.6654083
  27.8740113  47.5583833  17.4964083  26.7730113  48.1183833  16.9004083
  27.2290113  48.0033833  17.5274083  21.8720113  49.2223833  28.9694083
  21.5740113  49.8143833  29.5364083  21.9270113  49.6643833  28.2204083
  21.8360113  49.3753833  28.9424083  19.8510113  48.1723833  32.3674083
  19.0450113  47.8823833  32.5344083  19.7620113  49.0403833  32.3734083
  19.7190113  48.2573833  32.3924083  29.2100113  38.3613833  31.3824083
  29.9540113  38.8133833  31.3194083  28.6440113  38.8313833  30.9134083
  29.2370113  38.4983833  31.3044083  24.3880113  45.6453833  28.4604083
  24.8640113  46.0193833  29.0884083  23.5650113  45.7793833  28.7194083
  24.3370113  45.7203833  28.5914083  21.0980113  41.2483833  31.2014083
  21.2590113  40.5043833  31.6284083  21.0530113  40.9993833  30.3664083
  21.1150113  41.1013833  31.1414083  23.6520113  53.0383833  23.6884083
  24.1980113  53.7173833  23.7424083  23.3020113  53.1203833  22.8934083
  23.6810113  53.1513833  23.5784083  30.4950113  36.3413833  29.0524083
  30.2150113  37.1663833  29.0084083  31.2110113  36.3943833  29.5484083
  30.5600113  36.4713833  29.1194083  22.8500113  37.0563833  31.0814083
  23.5550113  37.3763833  30.6794083  23.0910113  36.2493833  31.3084083
  22.9890113  36.9843833  31.0554083  21.8350113  51.2663833  27.0774083
  21.2110113  51.8483833  26.8954083  22.0830113  50.9803833  26.2914083
  21.7790113  51.3103833  26.9344083  26.1440113  47.9003833  34.0664083
  26.9010113  48.1863833  33.7404083  25.5970113  47.9523833  33.3884083
  26.1750113  47.9503833  33.9174083  30.0530113  50.4503833  32.5704083
  30.3990113  50.7203833  33.3244083  30.3470113  51.0323833  31.9904083
  30.1480113  50.5763833  32.5964083  31.9160113  42.5963833  17.9094083
  32.2940113  43.2733833  17.5094083  31.0740113  42.8203833  17.9404083
  31.8470113  42.7293833  17.8544083  23.4290113  46.0423833  16.9924083
  22.6240113  45.8653833  16.7074083  23.3960113  46.8933833  17.1844083
  23.3050113  46.1413833  16.9794083  19.3590113  42.1093833  27.1424083
  19.7990113  42.0063833  26.3964083  19.9040113  41.7963833  27.7474083
  19.5040113  42.0483833  27.1214083  27.3750113  41.2113833  32.7344083
  26.7270113  41.6813833  33.0824083  27.9400113  41.1223833  33.3934083
  27.3630113  41.2673833  32.8834083  27.0630113  42.7483833  29.0324083
  27.3650113  43.1683833  29.7354083  27.0990113  41.9083833  29.2644083
  27.1130113  42.6863833  29.1704083  24.4880113  52.9153833  32.9574083
  24.9660113  52.3153833  32.5414083  24.1370113  52.4723833  33.6224083
  24.5070113  52.7613833  32.9944083  29.6110113  42.1953833  21.2844083
  29.8180113  41.9943833  22.1084083  30.3670113  42.4633833  20.9424083
  29.7530113  42.2053833  21.3554083  22.9060113  37.0943833  27.1894083
  22.0800113  36.9453833  27.4264083  22.8660113  37.1293833  26.3184083
  22.7780113  37.0773833  27.0954083  30.6330113  38.2783833  22.7584083
  29.9190113  37.8073833  22.9294083  30.4710113  38.6193833  21.9724083
  30.5040113  38.2593833  22.6674083  31.0760113  46.2223833  21.1384083
  31.5520113  45.4933833  21.0904083  30.2550113  45.9363833  21.0624083
  31.0250113  46.0723833  21.1194083  24.5470113  48.1343833  31.9774083
  23.7520113  48.0703833  32.3284083  24.6180113  48.9813833  31.7824083
  24.4400113  48.2493833  32.0004083  15.4710113  37.4923833  33.2244083
  15.3310113  38.2873833  32.8934083  14.6850113  37.2493833  33.5134083
  15.3340113  37.5743833  33.2184083  20.3770113  54.3413833  27.2944083
  20.3880113  54.4003833  28.1644083  19.9520113  53.5943833  27.1444083
  20.3160113  54.2393833  27.4004083  18.5350113  40.2363833  20.4494083
  18.6610113  39.9073833  19.6514083  17.7230113  39.9873833  20.6484083
  18.4340113  40.1513833  20.3614083  27.2920113  47.3893833  23.4934083
  27.3680113  47.7303833  24.2924083  27.4610113  46.5423833  23.6144083
  27.3280113  47.3143833  23.6294083  24.8140113  46.6633833  23.0584083
  24.5160113  46.3483833  23.8154083  25.5090113  47.1363833  23.2934083
  24.8730113  46.6863833  23.2054083  25.0360113  50.7813833  31.0854083
  25.7230113  50.6673833  31.6104083  25.1700113  51.5723833  30.7414083
  25.1570113  50.8813833  31.1124083  33.2120113  43.3903833  32.8964083
  32.3570113  43.2683833  33.0224083  33.3650113  42.9953833  32.1334083
  33.1080113  43.3133833  32.8024083  27.7250113  44.0553833  31.4724083
  27.4700113  43.3363833  31.8944083  28.5460113  44.1713833  31.7424083
  27.8090113  43.9663833  31.5744083  17.1410113  53.8393833  32.7364083
  16.4870113  53.2703833  32.8344083  16.7660113  54.6123833  32.8874083
  16.9890113  53.8693833  32.7734083  25.6590113  45.2453833  34.6594083
  25.9820113  45.9313833  34.2274083  24.9550113  45.5683833  35.0614083
  25.6020113  45.3943833  34.6544083  28.7430113  53.6193833  25.5884083
  28.2920113  54.2623833  25.9674083  29.4510113  53.5403833  26.0934083
  28.7810113  53.7023833  25.7194083  25.4440113  48.7093833  28.5184083
  24.7500113  49.1113833  28.8614083  26.1210113  49.1423833  28.8574083
  25.4410113  48.8323833  28.6194083  30.8210113  51.3023833  35.0984083
  31.5970113  50.9123833  35.1814083  30.3520113  50.9663833  35.7534083
  30.8660113  51.1953833  35.2074083  18.5120113  42.2473833  30.8654083
  18.8870113  42.8663833  30.3784083  19.1860113  41.7733833  31.1504083
  18.6670113  42.2693833  30.8354083  16.2870113  40.6953833  30.1404083
  16.3640113  40.5263833  29.2874083  17.0330113  41.1013833  30.3374083
  16.4080113  40.7303833  30.0434083  31.8460113  43.3353833  20.5804083
  31.9490113  43.2773833  19.7164083  32.5870113  43.0033833  20.8984083
  31.9710113  43.2783833  20.4994083  18.8410113  38.1053833  32.5514083
  18.7600113  37.2613833  32.7574083  18.5270113  38.1493833  31.7384083
  18.7830113  37.9873833  32.4614083  25.7660113  50.3003833  21.6874083
  25.5610113  51.1333833  21.5284083  24.9910113  49.9183833  21.8094083
  25.6210113  50.3673833  21.6824083  30.9480113  43.4813833  29.9364083
  30.9460113  42.6183833  30.0604083  31.0150113  43.8053833  30.7434083
  30.9580113  43.4013833  30.0734083  15.6840113  45.9213833  30.3644083
  16.0040113  46.1403833  29.5834083  15.5840113  45.0563833  30.3094083
  15.7160113  45.8263833  30.2414083  17.1400113  41.8573833  16.9824083
  16.4680113  41.8713833  17.5384083  17.2350113  41.0093833  16.7984083
  17.0550113  41.7343833  17.0374083  26.8270113  38.2813833  33.7184083
  26.9190113  38.9933833  34.2124083  26.1900113  37.8363833  34.1154083
  26.7460113  38.3203833  33.8504083  25.8210113  38.4713833  24.5724083
  25.1210113  38.9893833  24.5164083  25.8590113  38.0913833  23.7884083
  25.7230113  38.4923833  24.4484083  21.1280113  50.5623833  18.0964083
  21.5690113  50.6423833  18.8444083  20.3230113  50.3463833  18.3544083
  21.0740113  50.5423833  18.2454083  29.4190113  38.9873833  27.3724083
  30.2740113  39.0863833  27.5174083  29.0500113  39.5403833  27.9374083
  29.4910113  39.0843833  27.4774083  20.4470113  45.2133833  31.7494083
  20.0510113  45.9873833  31.8244083  20.0410113  44.8403833  31.0734083
  20.3290113  45.2723833  31.6604083  29.7230113  44.2673833  25.8634083
  30.3890113  44.8083833  26.0234083  29.3780113  44.5783833  25.1244083
  29.7700113  44.3933833  25.7784083  30.0360113  52.3333833  21.6704083
  29.8620113  51.6793833  22.2204083  30.7490113  52.0623833  21.2474083
  30.1160113  52.1963833  21.6894083  18.4570113  49.6323833  18.6974083
  18.2130113  49.3253833  19.4774083  18.4240113  48.9293833  18.1814083
  18.4160113  49.4833833  18.7364083  21.2760113  47.8773833  17.4404083
  20.4580113  47.6093833  17.5804083  21.2480113  48.7293833  17.6254083
  21.1510113  47.9643833  17.4884083  20.8760113  38.1903833  29.1994083
  20.0120113  38.2743833  29.2794083  21.0960113  37.6763833  29.8684083
  20.7810113  38.1273833  29.3104083  32.8940113  36.8253833  30.5284083
  32.8420113  36.7813833  31.3984083  33.5810113  36.3223833  30.3384083
  32.9880113  36.7453833  30.6284083  24.9790113  38.9383833  27.5734083
  24.2420113  38.4843833  27.6864083  25.5500113  38.5363833  28.0964083
  24.9540113  38.8113833  27.6674083  27.7110113  49.7863833  29.3614083
  27.9170113  50.0873833  30.1534083  27.6500113  50.5083833  28.8764083
  27.7320113  49.9373833  29.4064083  27.2450113  54.0003833  33.6074083
  26.4920113  53.9823833  33.1664083  27.4130113  54.8523833  33.6914083
  27.1590113  54.1233833  33.5544083  22.4820113  43.2673833  32.7774083
  22.1600113  42.6913833  32.2074083  22.1230113  44.0223833  32.5314083
  22.3820113  43.2933833  32.6574083  23.2780113  36.5193833  17.4044083
  23.3560113  36.7663833  16.5714083  22.5350113  36.8963833  17.6624083
  23.1800113  36.6113833  17.3194083  32.5230113  48.4253833  28.8194083
  32.4910113  47.5633833  28.6844083  31.8300113  48.7273833  28.3854083
  32.4160113  48.3423833  28.7354083  20.9170113  53.6233833  33.0254083
  20.9580113  53.7493833  33.8884083  21.5680113  53.0633833  32.8694083
  21.0190113  53.5593833  33.1304083  30.6280113  51.6853833  27.6164083
  31.1550113  51.6023833  26.9254083  30.2370113  50.9073833  27.6704083
  30.6480113  51.5583833  27.5224083  18.0960113  38.2733833  29.8474083
  17.7530113  37.5063833  29.6134083  17.4010113  38.7973833  29.9114083
  17.9430113  38.2373833  29.8224083  27.1420113  37.1293833  26.8244083
  27.8120113  37.6733833  26.9514083  26.6390113  37.5533833  26.2514083
  27.1670113  37.2723833  26.7584083  18.5100113  52.0063833  34.3854083
  19.1050113  52.4373833  34.8574083  18.1460113  52.6303833  33.8964083
  18.5440113  52.1623833  34.3824083  26.5010113  42.9373833  24.3174083
  27.0520113  42.3303833  24.6174083  26.0760113  43.2003833  25.0324083
  26.5200113  42.8863833  24.4664083  16.7490113  41.5873833  23.8034083
  16.3810113  41.8893833  24.5344083  17.2830113  40.9583833  24.0874083
  16.7730113  41.5393833  23.9534083  16.4370113  49.9953833  31.3144083
  15.8630113  50.4113833  31.8234083  17.1700113  50.4603833  31.4094083
  16.4610113  50.1253833  31.4034083  28.4710113  44.7683833  20.8794083
  28.5390113  43.9183833  21.0604083  27.6480113  44.8543833  20.6014083
  28.3590113  44.6553833  20.8654083  18.2230113  53.2623833  20.0894083
  18.0780113  53.4183833  19.2434083  19.0890113  53.3413833  20.1674083
  18.3300113  53.2973833  19.9764083  22.3900113  45.6593833  19.8174083
  22.4900113  45.7983833  18.9624083  23.2080113  45.5993833  20.1134083
  22.5250113  45.6703833  19.7344083  31.5500113  53.7233833  17.2974083
  32.1870113  53.5893833  17.8784083  31.2090113  52.9293833  17.1804083
  31.5940113  53.5863833  17.3654083  31.7450113  46.1413833  34.0304083
  32.3790113  45.9713833  34.6044083  32.1620113  46.5443833  33.3784083
  31.9000113  46.1763833  34.0194083  27.6250113  49.9883833  19.6194083
  27.3740113  49.8603833  20.4454083  27.3080113  49.2933833  19.1984083
  27.5410113  49.8673833  19.6794083  32.2690113  41.6463833  27.7394083
  31.4360113  41.8963833  27.6674083  32.2130113  40.8063833  27.9684083
  32.1380113  41.5593833  27.7624083  21.5290113  38.6343833  32.9334083
  21.7630113  38.0583833  32.3204083  20.6870113  38.4533833  33.0744083
  21.4390113  38.5223833  32.8634083  29.1560113  46.2523833  35.3854083
  30.0270113  46.2163833  35.3494083  28.9370113  46.6723833  34.6534083
  29.2530113  46.3083833  35.2724083  18.9100113  52.0773833  26.5664083
  18.8310113  51.2673833  26.2504083  18.4660113  52.5643833  25.9944083
  18.8330113  52.0293833  26.4354083  24.5110113  48.1963833  19.0494083
  25.2280113  47.8493833  18.6934083  24.4770113  48.9963833  18.7014083
  24.6120113  48.2633833  18.9454083  16.4820113  54.3213833  30.1474083
  16.9750113  54.2653833  30.8654083  16.6700113  53.5883833  29.7124083
  16.5830113  54.2043833  30.1894083  25.9200113  36.8373833   3.2881673
  25.6750113  37.3253833   2.6081673  26.7830113  36.7643833   3.1881673
  26.0110113  36.8983833   3.1731673  25.7290113  43.7533833   7.9591673
  25.2050113  44.3493833   8.3221673  26.1260113  43.3853833   8.6431673
  25.7100113  43.7873833   8.1141673  15.5980113  47.8933833   3.4151673
  15.1570113  48.0113833   4.1581673  15.3150113  47.1183833   3.1301673
  15.4910113  47.7963833   3.4831673  28.4000113  44.8203833   4.6351673
  28.4800113  44.8243833   3.7661673  27.8160113  44.1883833   4.7841673
  28.3250113  44.7273833   4.5291673  18.1070113  48.5893833   2.4941673
  18.7150113  48.4193833   3.0971673  17.3560113  48.4493833   2.9151673
  18.0860113  48.5433833   2.6451673  22.3890113  37.9243833   2.4431673
  22.3190113  38.6013833   1.8971673  23.1300113  37.5363833   2.1941673
  22.4880113  37.9673833   2.3251673  15.5380113  50.6283833   9.6701673
  15.6670113  50.3483833  10.4861673  14.9280113  50.0873833   9.3611673
  15.4670113  50.5073833   9.7451673  22.1120113  48.1533833  14.7371673
  21.8760113  48.1503833  15.5771673  21.3640113  48.0053833  14.3131673
  21.9660113  48.1303833  14.7981673  16.9840113  45.1493833   3.8721673
  16.5220113  44.7573833   3.2451673  17.6840113  44.6363833   3.9641673
  17.0190113  45.0163833   3.7931673  21.4920113  40.7593833   9.2191673
  22.1700113  40.7773833   8.6701673  21.4470113  39.9233833   9.4641673
  21.5850113  40.6383833   9.1741673  22.0940113  51.3453833  12.0001673
  22.2320113  52.1053833  11.5931673  22.8850113  50.9803833  12.0271673
  22.2310113  51.4043833  11.9441673  18.9850113  43.2493833   3.8951673
  19.8020113  43.0623833   4.1381673  18.5080113  42.6353833   4.2911673
  19.0350113  43.1313833   3.9901673  23.1890113  49.2303833   6.5051673
  23.5370113  48.4313833   6.5351673  23.8540113  49.7343833   6.2501673
  23.3390113  49.1863833   6.4721673  23.2460113  48.6793833   2.7161673
  23.5770113  48.0353833   3.2021673  23.4860113  48.4683833   1.9051673
  23.3300113  48.5533833   2.6681673  25.2140113  42.8103833  14.0551673
  24.3660113  42.7113833  13.8771673  25.2430113  43.5553833  14.5091673
  25.0930113  42.9063833  14.0961673  19.5820113  38.3433833   3.1611673
  19.2860113  38.8443833   2.5111673  20.4490113  38.4213833   3.1041673
  19.6660113  38.4293833   3.0571673  29.7720113  35.7703833  13.1691673
  29.6140113  36.5393833  12.7871673  29.0000113  35.5503833  13.5131673
  29.6340113  35.8513833  13.1641673  22.5610113  37.4853833   5.3841673
  22.6340113  38.3453833   5.5131673  22.5230113  37.4103833   4.5161673
  22.5660113  37.6013833   5.2751673  15.4400113  42.9103833   6.8851673
  15.1840113  43.7413833   6.8101673  14.7760113  42.5273833   7.3021673
  15.3040113  42.9763833   6.9361673  15.3500113  52.6203833   4.7851673
  14.7580113  53.1783833   4.4721673  15.7760113  52.3513833   4.0731673
  15.3260113  52.6623833   4.6341673  21.1900113  50.4643833   2.2651673
  20.6110113  50.1893833   2.8571673  21.8140113  49.8553833   2.2901673
  21.1970113  50.3343833   2.3561673  25.5010113  53.1443833   1.7771673
  25.7150113  53.6713833   2.4391673  26.2680113  52.9703833   1.3981673
  25.6460113  53.1963833   1.8191673  18.4690113  37.7273833   7.3761673
  17.9480113  37.0993833   7.0681673  19.0600113  37.2903833   7.8471673
  18.4800113  37.5693833   7.4001673  21.7750113  39.8603833  16.6741673
  21.8920113  39.4063833  15.9381673  22.0630113  40.6583833  16.4711673
  21.8350113  39.9113833  16.5351673  16.8950113  51.2903833   2.7161673
  17.5510113  50.7153833   2.7311673  17.2840113  52.0393833   2.4951673
  17.0500113  51.3153833   2.6861673  32.6280113  40.3843833   3.9781673
  32.2820113  41.0623833   4.4041673  31.9920113  39.7863833   3.9941673
  32.4830113  40.3963833   4.0431673  27.9400113  53.1543833  10.0821673
  28.6840113  53.6103833  10.0721673  27.8190113  52.9403833   9.2451673
  28.0320113  53.1903833   9.9571673  17.5080113  39.4573833  15.6581673
  16.7300113  39.0673833  15.5861673  17.9990113  39.0453833  15.0671673
  17.4650113  39.3383833  15.5601673  17.7130113  49.7773833   6.2161673
  18.1360113  49.4213833   5.5421673  18.0370113  49.3553833   6.9081673
  17.8230113  49.6623833   6.2191673  20.9440113  52.6293833   5.5121673
  21.7880113  52.7333833   5.3171673  20.6470113  53.4473833   5.5801673
  21.0250113  52.7653833   5.4931673  24.1570113  37.1003833  14.8261673
  24.3350113  36.2913833  14.5511673  24.0140113  37.5413833  14.0871673
  24.1620113  37.0463833  14.6761673  24.7510113  42.0263833   3.5991673
  25.0380113  41.7943833   2.8091673  25.4830113  42.1053833   4.0681673
  24.9010113  42.0033833   3.5521673  19.9420113  53.8483833  11.2521673
  20.2340113  53.7813833  12.0721673  19.3160113  53.2433833  11.2071673
  19.8930113  53.7493833  11.3671673  32.3030113  38.7073833   9.3471673
  33.0600113  38.7793833   8.9191673  32.3660113  37.9343833   9.7461673
  32.4240113  38.6043833   9.3421673  14.8560113  40.0053833  13.2441673
  14.8520113  40.5923833  13.8901673  15.4500113  40.3173833  12.6871673
  14.9430113  40.1383833  13.2571673  27.1940113  50.3393833  13.7861673
  27.1600113  50.7213833  14.5701673  28.0480113  50.2973833  13.6151673
  27.3150113  50.3893833  13.8771673  15.7930113  39.6003833   2.1591673
  15.6790113  38.7363833   2.1901673  15.3180113  39.8943833   2.8291673
  15.7060113  39.5163833   2.2621673  17.9350113  52.0103833  10.3741673
  17.2370113  51.5023833  10.5001673  18.1950113  51.8053833   9.5661673
  17.8700113  51.9053833  10.2731673  25.6460113  53.5033833  11.2841673
  26.4140113  53.4233833  10.8781673  25.0630113  53.3823833  10.6461673
  25.6730113  53.4733833  11.1301673  31.9230113  54.1063833   4.1851673
  31.4680113  54.8233833   4.3861673  31.3090113  53.5353833   3.9431673
  31.7650113  54.1283833   4.1791673  23.6950113  40.1163833   5.3171673
  23.7690113  40.6843833   4.6591673  23.8160113  40.6083833   6.0271673
  23.7230113  40.2733833   5.3251673  28.9200113  49.9513833   3.7291673
  29.6210113  49.4693833   3.9181673  28.2600113  49.3823833   3.7741673
  28.9260113  49.7963833   3.7631673  19.2960113  50.8613833  12.9411673
  20.1370113  50.9243833  12.7191673  19.2590113  51.2583833  13.7171673
  19.4150113  50.9293833  13.0231673  18.3030113  35.9393833   3.6651673
  18.8390113  36.6273833   3.6551673  18.3060113  35.6653833   2.8371673
  18.3820113  36.0003833   3.5411673  21.2590113  46.3723833   7.6901673
  21.4310113  46.1623833   8.5191673  20.6040113  45.8383833   7.4741673
  21.1880113  46.2623833   7.7811673  27.4870113  40.2863833  11.2051673
  27.3920113  40.6053833  12.0111673  26.8940113  39.6473833  11.1671673
  27.3850113  40.2383833  11.3191673  22.0090113  46.3103833  10.2801673
  22.0620113  47.1573833  10.4821673  21.7240113  45.9403833  11.0171673
  21.9750113  46.3803833  10.4181673  28.1860113  47.0053833   9.4101673
  27.6720113  46.5933833   9.9811673  28.0600113  47.8493833   9.5911673
  28.0920113  47.0693833   9.5211673  28.7430113  36.2303833   4.0411673
  28.7920113  35.9123833   4.8521673  29.0660113  35.5863833   3.5481673
  28.7980113  36.0883833   4.0881673  14.8300113  50.6813833  16.4911673
  15.5860113  51.0303833  16.7491673  15.0070113  49.8283833  16.4341673
  14.9680113  50.6063833  16.5211673  31.2070113  40.4663833  12.3491673
  31.9790113  40.2413833  12.6861673  30.7320113  40.6833833  13.0491673
  31.2510113  40.4653833  12.5021673  18.7510113  39.7493833   5.3191673
  19.0230113  39.3193833   4.6111673  18.5750113  39.1133833   5.8901673
  18.7650113  39.5923833   5.2991673  18.5750113  47.1763833   4.8681673
  19.4260113  47.0963833   4.6951673  18.2180113  46.4943833   4.4561673
  18.6480113  47.0633833   4.7811673  17.3420113  53.9013833   6.1051673
  16.6690113  53.4033833   5.8601673  17.7450113  54.0863833   5.3541673
  17.3020113  53.8553833   5.9581673  16.8920113  40.8513833   8.4011673
  17.7350113  41.0713833   8.3581673  16.5030113  41.4243833   7.8701673
  16.9590113  40.9683833   8.3161673  33.6730113  51.9533833  13.7911673
  32.9910113  52.2633833  13.3441673  33.3040113  51.4953833  14.4361673
  33.5170113  51.9313833  13.8201673  20.9430113  47.1833833   3.1031673
  21.6560113  47.6783833   3.1931673  21.1650113  46.6163833   2.4771673
  21.0810113  47.1723833   3.0241673  15.0990113  48.8263833   6.4231673
  14.4320113  49.3143833   6.6991673  15.7790113  49.3713833   6.4521673
  15.1010113  48.9783833   6.4681673  22.7460113  42.5363833  16.5191673
  22.2620113  43.1133833  16.9611673  22.7180113  42.8313833  15.6981673
  22.6700113  42.6653833  16.4631673  33.8440113  43.2203833  11.1311673
  34.0590113  42.4203833  10.8551673  32.9940113  43.2803833  10.9421673
  33.7500113  43.1113833  11.0621673  25.4660113  50.8863833   5.4301673
  24.9430113  51.5203833   5.1371673  25.7760113  50.5223833   4.7011673
  25.4340113  50.9263833   5.2791673  19.5410113  48.6743833   8.1901673
  20.0080113  48.9633833   8.8681673  20.1130113  48.1963833   7.7361673
  19.6950113  48.6463833   8.2231673  27.9770113  40.6883833   5.9271673
  28.3210113  40.8403833   6.7141673  27.5240113  39.9503833   6.0401673
  27.9610113  40.6013833   6.0601673  16.1070113  46.3443833   6.7341673
  16.5380113  46.2153833   5.9871673  15.9020113  47.1923833   6.7081673
  16.1400113  46.4503833   6.6201673  31.5070113  52.3353833  11.8811673
  30.8360113  52.8493833  12.0991673  31.5700113  52.4353833  11.0171673
  31.4170113  52.4263833  11.7861673  20.1910113  49.8603833   5.0161673
  20.3170113  50.7033833   5.2031673  20.8590113  49.4613833   5.4121673
  20.3090113  49.9263833   5.1021673  18.3210113  43.3433833  14.8781673
  17.7850113  42.8373833  15.3461673  18.3410113  42.9533833  14.0981673
  18.2440113  43.2103833  14.8321673  18.9730113  44.5703833   6.6171673
  18.1920113  44.5113833   6.2341673  19.0450113  43.8183833   7.0541673
  18.8680113  44.4513833   6.6251673  19.4030113  44.3073833  10.0851673
  19.4280113  43.6323833   9.5341673  18.7570113  44.8033833   9.7731673
  19.3120113  44.2803833   9.9581673  29.2980113  42.0203833   8.4811673
  28.6360113  42.3483833   8.9441673  29.4850113  42.6543833   7.9121673
  29.2280113  42.1623833   8.4651673  23.5030113  53.0843833   9.4771673
  23.2260113  52.4433833   8.9541673  23.2950113  53.8103833   9.0391673
  23.4320113  53.0973833   9.3351673  25.9430113  37.9263833  11.9101673
  26.0920113  37.1013833  11.6671673  26.3220113  37.9813833  12.6941673
  26.0210113  37.8123833  11.9901673  27.4910113  39.9893833   1.9921673
  27.9810113  40.7063833   1.9151673  26.7010113  40.2503833   1.7291673
  27.4470113  40.1333833   1.9421673  17.2020113  45.6623833  15.6441673
  17.1650113  46.1633833  14.9301673  17.5330113  44.9103833  15.3491673
  17.2450113  45.6243833  15.4951673  28.8050113  47.8673833  13.9021673
  29.2890113  48.5853833  14.0001673  29.1990113  47.4403833  13.2511673
  28.9350113  47.9103833  13.8201673  23.1010113  50.7123833  15.0791673
  23.4550113  50.5343833  15.8561673  22.6650113  49.9833833  14.8801673
  23.0890113  50.5783833  15.1651673  24.0730113  41.4593833   7.7171673
  24.5530113  42.1583833   7.9251673  24.4460113  40.8123833   8.1681673
  24.1990113  41.4673833   7.8141673  31.2340113  48.4983833   3.9721673
  31.5900113  48.1483833   4.6871673  31.2260113  47.8373833   3.4021673
  31.2860113  48.3483833   3.9931673  27.2790113  51.5643833   7.8161673
  26.6760113  51.2683833   7.2591673  27.8240113  52.0163833   7.3071673
  27.2700113  51.5873833   7.6581673  27.2920113  48.4153833   7.2161673
  26.4950113  48.6393833   7.4901673  27.5500113  47.8213833   7.8011673
  27.2120113  48.3603833   7.3431673  30.5520113  46.4133833  12.0621673
  30.6070113  46.5383833  11.2001673  31.3050113  46.7333833  12.3641673
  30.6710113  46.4783833  11.9791673  26.7430113  51.7623833  16.3391673
  26.9070113  52.0453833  17.1481673  27.0060113  52.4233833  15.8341673
  26.8060113  51.9023833  16.3841673  31.5840113  36.7113833  15.0491673
  30.9470113  36.3113833  14.6071673  31.6100113  36.2803833  15.8071673
  31.4940113  36.5893833  15.0951673  26.2830113  46.2193833  11.6621673
  26.1280113  46.8293833  12.2661673  26.8170113  45.6613833  12.0681673
  26.3390113  46.2273833  11.8111673  14.9740113  36.9383833   1.8631673
  15.1030113  36.2303833   1.3711673  14.6070113  36.6203833   2.5881673
  14.9390113  36.7863833   1.8981673  24.6670113  44.6193833   2.3201673
  24.7260113  45.2693833   2.8991673  24.4780113  43.9233833   2.8111673
  24.6480113  44.6123833   2.4781673  29.8930113  48.9483833   8.1891673
  29.4140113  49.2463833   7.5231673  29.5370113  48.1723833   8.3671673
  29.7700113  48.8773833   8.1171673  23.8900113  46.6663833   6.7511673
  23.0430113  46.4723833   6.8321673  24.2140113  46.5013833   7.5441673
  23.8120113  46.6133833   6.8801673  17.7380113  46.3593833   9.0671673
  18.4600113  46.8473833   9.0301673  17.4680113  46.3293833   8.2381673
  17.8050113  46.4273833   8.9391673  20.9680113  41.5303833   5.8021673
  21.8140113  41.3403833   5.9001673  20.5980113  40.7533833   5.6641673
  21.0380113  41.3873833   5.7961673  15.7890113  42.8683833   2.4571673
  16.2780113  42.5763833   3.1181673  15.9180113  42.2753833   1.8301673
  15.8800113  42.7373833   2.4621673  30.8240113  45.8903833   9.3081673
  30.8170113  45.1143833   9.7061673  29.9830113  46.1243833   9.3011673
  30.6990113  45.8103833   9.3661673  17.1330113  47.4113833  13.3451673
  16.7120113  46.8933833  12.7841673  16.7810113  48.1973833  13.2021673
  17.0190113  47.4513833  13.2411673  32.0800113  45.9613833   6.7451673
  31.7940113  46.3623833   7.4651673  32.9400113  45.8993833   6.8721673
  32.1650113  46.0113833   6.8701673  29.7420113  39.8853833  15.2851673
  29.2170113  40.3443833  15.8091673  29.3810113  39.0903833  15.2791673
  29.6110113  39.8353833  15.3611673  15.2490113  38.7333833   7.1891673
  15.2930113  39.0773833   6.3881673  16.0040113  38.9703833   7.5561673
  15.3670113  38.8193833   7.1251673  33.2110113  51.5943833   7.2741673
  33.5010113  51.8513833   6.4931673  33.9060113  51.6903833   7.7931673
  33.3570113  51.6463833   7.2351673  28.2340113  43.4543833  15.3611673
  28.3070113  43.5583833  16.2241673  27.6000113  44.0123833  15.1401673
  28.1510113  43.5523833  15.4561673  30.5020113  43.7733833  13.7261673
  30.8210113  44.5593833  13.9291673  30.1320113  43.5033833  14.4691673
  30.4950113  43.8493833  13.8661673  30.2980113  42.0313833   4.9151673
  29.5530113  41.7083833   5.2331673  30.3000113  42.8573833   5.1951673
  30.1880113  42.1053833   5.0031673  33.2000113  44.3153833  16.4611673
  33.1480113  43.9743833  15.6601673  33.9370113  44.7823833  16.4391673
  33.3010113  44.3343833  16.3391673  32.7380113  47.9913833  12.6671673
  33.3660113  47.4423833  12.4111673  32.6770113  48.5563833  12.0051673
  32.8220113  47.9943833  12.5311673  21.8720113  49.2223833   9.9631673
  21.5740113  49.8143833  10.5301673  21.9270113  49.6643833   9.2141673
  21.8360113  49.3753833   9.9361673  19.8510113  48.1723833  13.3611673
  19.0450113  47.8823833  13.5281673  19.7620113  49.0403833  13.3671673
  19.7190113  48.2573833  13.3861673  29.2100113  38.3613833  12.3761673
  29.9540113  38.8133833  12.3131673  28.6440113  38.8313833  11.9071673
  29.2370113  38.4983833  12.2981673  24.3880113  45.6453833   9.4541673
  24.8640113  46.0193833  10.0821673  23.5650113  45.7793833   9.7131673
  24.3370113  45.7203833   9.5851673  21.0980113  41.2483833  12.1951673
  21.2590113  40.5043833  12.6221673  21.0530113  40.9993833  11.3601673
  21.1150113  41.1013833  12.1351673  23.6520113  53.0383833   4.6821673
  24.1980113  53.7173833   4.7361673  23.3020113  53.1203833   3.8871673
  23.6810113  53.1513833   4.5721673  30.4950113  36.3413833  10.0461673
  30.2150113  37.1663833  10.0021673  31.2110113  36.3943833  10.5421673
  30.5600113  36.4713833  10.1131673  22.8500113  37.0563833  12.0751673
  23.5550113  37.3763833  11.6731673  23.0910113  36.2493833  12.3021673
  22.9890113  36.9843833  12.0491673  21.8350113  51.2663833   8.0711673
  21.2110113  51.8483833   7.8891673  22.0830113  50.9803833   7.2851673
  21.7790113  51.3103833   7.9281673  26.1440113  47.9003833  15.0601673
  26.9010113  48.1863833  14.7341673  25.5970113  47.9523833  14.3821673
  26.1750113  47.9503833  14.9111673  30.0530113  50.4503833  13.5641673
  30.3990113  50.7203833  14.3181673  30.3470113  51.0323833  12.9841673
  30.1480113  50.5763833  13.5901673  19.3590113  42.1093833   8.1361673
  19.7990113  42.0063833   7.3901673  19.9040113  41.7963833   8.7411673
  19.5040113  42.0483833   8.1151673  27.3750113  41.2113833  13.7281673
  26.7270113  41.6813833  14.0761673  27.9400113  41.1223833  14.3871673
  27.3630113  41.2673833  13.8771673  27.0630113  42.7483833  10.0261673
  27.3650113  43.1683833  10.7291673  27.0990113  41.9083833  10.2581673
  27.1130113  42.6863833  10.1641673  24.4880113  52.9153833  13.9511673
  24.9660113  52.3153833  13.5351673  24.1370113  52.4723833  14.6161673
  24.5070113  52.7613833  13.9881673  29.6110113  42.1953833   2.2781673
  29.8180113  41.9943833   3.1021673  30.3670113  42.4633833   1.9361673
  29.7530113  42.2053833   2.3491673  22.9060113  37.0943833   8.1831673
  22.0800113  36.9453833   8.4201673  22.8660113  37.1293833   7.3121673
  22.7780113  37.0773833   8.0891673  30.6330113  38.2783833   3.7521673
  29.9190113  37.8073833   3.9231673  30.4710113  38.6193833   2.9661673
  30.5040113  38.2593833   3.6611673  31.0760113  46.2223833   2.1321673
  31.5520113  45.4933833   2.0841673  30.2550113  45.9363833   2.0561673
  31.0250113  46.0723833   2.1131673  24.5470113  48.1343833  12.9711673
  23.7520113  48.0703833  13.3221673  24.6180113  48.9813833  12.7761673
  24.4400113  48.2493833  12.9941673  15.4710113  37.4923833  14.2181673
  15.3310113  38.2873833  13.8871673  14.6850113  37.2493833  14.5071673
  15.3340113  37.5743833  14.2121673  20.3770113  54.3413833   8.2881673
  20.3880113  54.4003833   9.1581673  19.9520113  53.5943833   8.1381673
  20.3160113  54.2393833   8.3941673  27.2920113  47.3893833   4.4871673
  27.3680113  47.7303833   5.2861673  27.4610113  46.5423833   4.6081673
  27.3280113  47.3143833   4.6231673  24.8140113  46.6633833   4.0521673
  24.5160113  46.3483833   4.8091673  25.5090113  47.1363833   4.2871673
  24.8730113  46.6863833   4.1991673  25.0360113  50.7813833  12.0791673
  25.7230113  50.6673833  12.6041673  25.1700113  51.5723833  11.7351673
  25.1570113  50.8813833  12.1061673  33.2120113  43.3903833  13.8901673
  32.3570113  43.2683833  14.0161673  33.3650113  42.9953833  13.1271673
  33.1080113  43.3133833  13.7961673  27.7250113  44.0553833  12.4661673
  27.4700113  43.3363833  12.8881673  28.5460113  44.1713833  12.7361673
  27.8090113  43.9663833  12.5681673  17.1410113  53.8393833  13.7301673
  16.4870113  53.2703833  13.8281673  16.7660113  54.6123833  13.8811673
  16.9890113  53.8693833  13.7671673  25.6590113  45.2453833  15.6531673
  25.9820113  45.9313833  15.2211673  24.9550113  45.5683833  16.0551673
  25.6020113  45.3943833  15.6481673  28.7430113  53.6193833   6.5821673
  28.2920113  54.2623833   6.9611673  29.4510113  53.5403833   7.0871673
  28.7810113  53.7023833   6.7131673  25.4440113  48.7093833   9.5121673
  24.7500113  49.1113833   9.8551673  26.1210113  49.1423833   9.8511673
  25.4410113  48.8323833   9.6131673  30.8210113  51.3023833  16.0921673
  31.5970113  50.9123833  16.1751673  30.3520113  50.9663833  16.7471673
  30.8660113  51.1953833  16.2011673  18.5120113  42.2473833  11.8591673
  18.8870113  42.8663833  11.3721673  19.1860113  41.7733833  12.1441673
  18.6670113  42.2693833  11.8291673  16.2870113  40.6953833  11.1341673
  16.3640113  40.5263833  10.2811673  17.0330113  41.1013833  11.3311673
  16.4080113  40.7303833  11.0371673  18.8410113  38.1053833  13.5451673
  18.7600113  37.2613833  13.7511673  18.5270113  38.1493833  12.7321673
  18.7830113  37.9873833  13.4551673  25.7660113  50.3003833   2.6811673
  25.5610113  51.1333833   2.5221673  24.9910113  49.9183833   2.8031673
  25.6210113  50.3673833   2.6761673  30.9480113  43.4813833  10.9301673
  30.9460113  42.6183833  11.0541673  31.0150113  43.8053833  11.7371673
  30.9580113  43.4013833  11.0671673  15.6840113  45.9213833  11.3581673
  16.0040113  46.1403833  10.5771673  15.5840113  45.0563833  11.3031673
  15.7160113  45.8263833  11.2351673  26.8270113  38.2813833  14.7121673
  26.9190113  38.9933833  15.2061673  26.1900113  37.8363833  15.1091673
  26.7460113  38.3203833  14.8441673  25.8210113  38.4713833   5.5661673
  25.1210113  38.9893833   5.5101673  25.8590113  38.0913833   4.7821673
  25.7230113  38.4923833   5.4421673  29.4190113  38.9873833   8.3661673
  30.2740113  39.0863833   8.5111673  29.0500113  39.5403833   8.9311673
  29.4910113  39.0843833   8.4711673  20.4470113  45.2133833  12.7431673
  20.0510113  45.9873833  12.8181673  20.0410113  44.8403833  12.0671673
  20.3290113  45.2723833  12.6541673  29.7230113  44.2673833   6.8571673
  30.3890113  44.8083833   7.0171673  29.3780113  44.5783833   6.1181673
  29.7700113  44.3933833   6.7721673  30.0360113  52.3333833   2.6641673
  29.8620113  51.6793833   3.2141673  30.7490113  52.0623833   2.2411673
  30.1160113  52.1963833   2.6831673  20.8760113  38.1903833  10.1931673
  20.0120113  38.2743833  10.2731673  21.0960113  37.6763833  10.8621673
  20.7810113  38.1273833  10.3041673  32.8940113  36.8253833  11.5221673
  32.8420113  36.7813833  12.3921673  33.5810113  36.3223833  11.3321673
  32.9880113  36.7453833  11.6221673  24.9790113  38.9383833   8.5671673
  24.2420113  38.4843833   8.6801673  25.5500113  38.5363833   9.0901673
  24.9540113  38.8113833   8.6611673  27.7110113  49.7863833  10.3551673
  27.9170113  50.0873833  11.1471673  27.6500113  50.5083833   9.8701673
  27.7320113  49.9373833  10.4001673  27.2450113  54.0003833  14.6011673
  26.4920113  53.9823833  14.1601673  27.4130113  54.8523833  14.6851673
  27.1590113  54.1233833  14.5481673  22.4820113  43.2673833  13.7711673
  22.1600113  42.6913833  13.2011673  22.1230113  44.0223833  13.5251673
  22.3820113  43.2933833  13.6511673  32.5230113  48.4253833   9.8131673
  32.4910113  47.5633833   9.6781673  31.8300113  48.7273833   9.3791673
  32.4160113  48.3423833   9.7291673  20.9170113  53.6233833  14.0191673
  20.9580113  53.7493833  14.8821673  21.5680113  53.0633833  13.8631673
  21.0190113  53.5593833  14.1241673  30.6280113  51.6853833   8.6101673
  31.1550113  51.6023833   7.9191673  30.2370113  50.9073833   8.6641673
  30.6480113  51.5583833   8.5161673  18.0960113  38.2733833  10.8411673
  17.7530113  37.5063833  10.6071673  17.4010113  38.7973833  10.9051673
  17.9430113  38.2373833  10.8161673  27.1420113  37.1293833   7.8181673
  27.8120113  37.6733833   7.9451673  26.6390113  37.5533833   7.2451673
  27.1670113  37.2723833   7.7521673  18.5100113  52.0063833  15.3791673
  19.1050113  52.4373833  15.8511673  18.1460113  52.6303833  14.8901673
  18.5440113  52.1623833  15.3761673  26.5010113  42.9373833   5.3111673
  27.0520113  42.3303833   5.6111673  26.0760113  43.2003833   6.0261673
  26.5200113  42.8863833   5.4601673  16.7490113  41.5873833   4.7971673
  16.3810113  41.8893833   5.5281673  17.2830113  40.9583833   5.0811673
  16.7730113  41.5393833   4.9471673  16.4370113  49.9953833  12.3081673
  15.8630113  50.4113833  12.8171673  17.1700113  50.4603833  12.4031673
  16.4610113  50.1253833  12.3971673  28.4710113  44.7683833   1.8731673
  28.5390113  43.9183833   2.0541673  27.6480113  44.8543833   1.5951673
  28.3590113  44.6553833   1.8591673  31.7450113  46.1413833  15.0241673
  32.3790113  45.9713833  15.5981673  32.1620113  46.5443833  14.3721673
  31.9000113  46.1763833  15.0131673  32.3700113  40.7053833  15.7621673
  32.1740113  41.3493833  16.3171673  31.6480113  40.2153833  15.7541673
  32.2350113  40.7283833  15.8431673  32.2690113  41.6463833   8.7331673
  31.4360113  41.8963833   8.6611673  32.2130113  40.8063833   8.9621673
  32.1380113  41.5593833   8.7561673  21.5290113  38.6343833  13.9271673
  21.7630113  38.0583833  13.3141673  20.6870113  38.4533833  14.0681673
  21.4390113  38.5223833  13.8571673  29.1560113  46.2523833  16.3791673
  30.0270113  46.2163833  16.3431673  28.9370113  46.6723833  15.6471673
  29.2530113  46.3083833  16.2661673  18.9100113  52.0773833   7.5601673
  18.8310113  51.2673833   7.2441673  18.4660113  52.5643833   6.9881673
  18.8330113  52.0293833   7.4291673  16.4820113  54.3213833  11.1411673
  16.9750113  54.2653833  11.8591673  16.6700113  53.5883833  10.7061673
  16.5830113  54.2043833  11.1831673  25.9200113  18.3592753  79.3131313
  25.6750113  18.8472753  78.6331313  26.7830113  18.2862753  79.2131313
  26.0110113  18.4202753  79.1981313  25.7290113  25.2752753  83.9841313
  25.2050113  25.8712753  84.3471313  26.1260113  24.9072753  84.6681313
  25.7100113  25.3092753  84.1391313  15.5980113  29.4152753  79.4401313
  15.1570113  29.5332753  80.1831313  15.3150113  28.6402753  79.1551313
  15.4910113  29.3182753  79.5081313  31.8730113  32.7162753  76.9551313
  32.5740113  32.1972753  76.9511313  31.2860113  32.2712753  76.4861313
  31.8900113  32.5732753  76.8851313  15.3410113  23.2072753  75.9471313
  14.5630113  23.3692753  75.5871313  15.3800113  22.3362753  75.9691313
  15.2320113  23.1022753  75.8971313  18.4800113  28.4702753  74.6191313
  18.0880113  28.0992753  73.9331313  18.4000113  27.8722753  75.2481313
  18.4100113  28.3272753  74.6101313  28.4000113  26.3422753  80.6601313
  28.4800113  26.3462753  79.7911313  27.8160113  25.7102753  80.8091313
  28.3250113  26.2492753  80.5541313  18.1070113  30.1112753  78.5191313
  18.7150113  29.9412753  79.1221313  17.3560113  29.9712753  78.9401313
  18.0860113  30.0652753  78.6701313  22.3890113  19.4462753  78.4681313
  22.3190113  20.1232753  77.9221313  23.1300113  19.0582753  78.2191313
  22.4880113  19.4892753  78.3501313  16.9980113  33.2022753  74.5961313
  17.4650113  33.2862753  73.8641313  17.4530113  32.6242753  75.0651313
  17.1340113  33.1292753  74.5571313  15.5380113  32.1502753  85.6951313
  15.6670113  31.8702753  86.5111313  14.9280113  31.6092753  85.3861313
  15.4670113  32.0292753  85.7701313  16.9840113  26.6712753  79.8971313
  16.5220113  26.2792753  79.2701313  17.6840113  26.1582753  79.9891313
  17.0190113  26.5382753  79.8181313  21.4920113  22.2812753  85.2441313
  22.1700113  22.2992753  84.6951313  21.4470113  21.4452753  85.4891313
  21.5850113  22.1602753  85.1991313  22.0940113  32.8672753  88.0251313
  22.2320113  33.6272753  87.6181313  22.8850113  32.5022753  88.0521313
  22.2310113  32.9262753  87.9691313  18.9850113  24.7712753  79.9201313
  19.8020113  24.5842753  80.1631313  18.5080113  24.1572753  80.3161313
  19.0350113  24.6532753  80.0151313  23.1890113  30.7522753  82.5301313
  23.5370113  29.9532753  82.5601313  23.8540113  31.2562753  82.2751313
  23.3390113  30.7082753  82.4971313  23.2460113  30.2012753  78.7411313
  23.5770113  29.5572753  79.2271313  23.4860113  29.9902753  77.9301313
  23.3300113  30.0752753  78.6931313  19.5820113  19.8652753  79.1861313
  19.2860113  20.3662753  78.5361313  20.4490113  19.9432753  79.1291313
  19.6660113  19.9512753  79.0821313  22.5610113  19.0072753  81.4091313
  22.6340113  19.8672753  81.5381313  22.5230113  18.9322753  80.5411313
  22.5660113  19.1232753  81.3001313  27.2340113  21.9332753  73.7081313
  26.7840113  22.6142753  74.0151313  27.3480113  21.4292753  74.4111313
  27.1850113  21.9592753  73.8571313  15.4400113  24.4322753  82.9101313
  15.1840113  25.2632753  82.8351313  14.7760113  24.0492753  83.3271313
  15.3040113  24.4982753  82.9611313  15.3500113  34.1422753  80.8101313
  14.7580113  34.7002753  80.4971313  15.7760113  33.8732753  80.0981313
  15.3260113  34.1842753  80.6591313  21.1900113  31.9862753  78.2901313
  20.6110113  31.7112753  78.8821313  21.8140113  31.3772753  78.3151313
  21.1970113  31.8562753  78.3811313  27.3330113  34.2742753  75.8121313
  28.0600113  34.7462753  75.9141313  27.5620113  33.4802753  76.0921313
  27.4750113  34.2272753  75.8691313  25.5010113  34.6662753  77.8021313
  25.7150113  35.1932753  78.4641313  26.2680113  34.4922753  77.4231313
  25.6460113  34.7182753  77.8441313  18.4690113  19.2492753  83.4011313
  17.9480113  18.6212753  83.0931313  19.0600113  18.8122753  83.8721313
  18.4800113  19.0912753  83.4251313  16.8950113  32.8122753  78.7411313
  17.5510113  32.2372753  78.7561313  17.2840113  33.5612753  78.5201313
  17.0500113  32.8372753  78.7111313  32.6280113  21.9062753  80.0031313
  32.2820113  22.5842753  80.4291313  31.9920113  21.3082753  80.0191313
  32.4830113  21.9182753  80.0681313  27.9400113  34.6762753  86.1071313
  28.6840113  35.1322753  86.0971313  27.8190113  34.4622753  85.2701313
  28.0320113  34.7122753  85.9821313  17.7130113  31.2992753  82.2411313
  18.1360113  30.9432753  81.5671313  18.0370113  30.8772753  82.9331313
  17.8230113  31.1842753  82.2441313  20.9440113  34.1512753  81.5371313
  21.7880113  34.2552753  81.3421313  20.6470113  34.9692753  81.6051313
  21.0250113  34.2872753  81.5181313  24.7510113  23.5482753  79.6241313
  25.0380113  23.3162753  78.8341313  25.4830113  23.6272753  80.0931313
  24.9010113  23.5252753  79.5771313  25.4730113  23.8872753  74.7451313
  25.7540113  24.6752753  74.9941313  24.6970113  24.0522753  74.3821313
  25.4000113  24.0282753  74.7281313  29.5140113  35.8612753  76.2121313
  30.1790113  35.7132753  75.6671313  29.8740113  35.7782753  77.0021313
  29.6660113  35.8272753  76.2481313  19.9420113  35.3702753  87.2771313
  20.2340113  35.3032753  88.0971313  19.3160113  34.7652753  87.2321313
  19.8930113  35.2712753  87.3921313  32.3030113  20.2292753  85.3721313
  33.0600113  20.3012753  84.9441313  32.3660113  19.4562753  85.7711313
  32.4240113  20.1262753  85.3671313  24.3320113  32.0582753  74.5611313
  24.1510113  32.6032753  75.2181313  25.0980113  32.3482753  74.2601313
  24.4180113  32.1822753  74.6141313  27.8390113  19.9542753  75.6151313
  28.3790113  19.2722753  75.6911313  27.9010113  20.3522753  76.3891313
  27.9280113  19.9122753  75.7411313  15.7930113  21.1222753  78.1841313
  15.6790113  20.2582753  78.2151313  15.3180113  21.4162753  78.8541313
  15.7060113  21.0382753  78.2871313  17.9350113  33.5322753  86.3991313
  17.2370113  33.0242753  86.5251313  18.1950113  33.3272753  85.5911313
  17.8700113  33.4272753  86.2981313  25.0970113  22.3302753  76.9291313
  24.5890113  21.6682753  76.6751313  25.1490113  22.8342753  76.2191313
  25.0300113  22.3072753  76.7871313  25.6460113  35.0252753  87.3091313
  26.4140113  34.9452753  86.9031313  25.0630113  34.9042753  86.6711313
  25.6730113  34.9952753  87.1551313  25.0970113  19.2712753  76.8201313
  24.6420113  18.8692753  76.1941313  25.8700113  19.4262753  76.4451313
  25.1440113  19.2352753  76.6721313  31.9230113  35.6282753  80.2101313
  31.4680113  36.3452753  80.4111313  31.3090113  35.0572753  79.9681313
  31.7650113  35.6502753  80.2041313  23.6950113  21.6382753  81.3421313
  23.7690113  22.2062753  80.6841313  23.8160113  22.1302753  82.0521313
  23.7230113  21.7952753  81.3501313  28.9200113  31.4732753  79.7541313
  29.6210113  30.9912753  79.9431313  28.2600113  30.9042753  79.7991313
  28.9260113  31.3182753  79.7881313  18.3030113  17.4612753  79.6901313
  18.8390113  18.1492753  79.6801313  18.3060113  17.1872753  78.8621313
  18.3820113  17.5222753  79.5661313  21.2590113  27.8942753  83.7151313
  21.4310113  27.6842753  84.5441313  20.6040113  27.3602753  83.4991313
  21.1880113  27.7842753  83.8061313  27.4870113  21.8082753  87.2301313
  27.3920113  22.1272753  88.0361313  26.8940113  21.1692753  87.1921313
  27.3850113  21.7602753  87.3441313  22.0090113  27.8322753  86.3051313
  22.0620113  28.6792753  86.5071313  21.7240113  27.4622753  87.0421313
  21.9750113  27.9022753  86.4431313  28.1860113  28.5272753  85.4351313
  27.6720113  28.1152753  86.0061313  28.0600113  29.3712753  85.6161313
  28.0920113  28.5912753  85.5461313  28.7430113  17.7522753  80.0661313
  28.7920113  17.4342753  80.8771313  29.0660113  17.1082753  79.5731313
  28.7980113  17.6102753  80.1131313  18.7510113  21.2712753  81.3441313
  19.0230113  20.8412753  80.6361313  18.5750113  20.6352753  81.9151313
  18.7650113  21.1142753  81.3241313  31.4390113  28.9662753  75.5621313
  31.5580113  28.6792753  76.3771313  32.2460113  28.9872753  75.2321313
  31.5750113  28.9272753  75.6341313  18.5750113  28.6982753  80.8931313
  19.4260113  28.6182753  80.7201313  18.2180113  28.0162753  80.4811313
  18.6480113  28.5852753  80.8061313  17.3420113  35.4232753  82.1301313
  16.6690113  34.9252753  81.8851313  17.7450113  35.6082753  81.3791313
  17.3020113  35.3772753  81.9831313  16.8920113  22.3732753  84.4261313
  17.7350113  22.5932753  84.3831313  16.5030113  22.9462753  83.8951313
  16.9590113  22.4902753  84.3411313  29.3340113  25.5032753  75.1471313
  29.1140113  26.2342753  74.7251313  28.8860113  25.5542753  75.8941313
  29.2350113  25.6182753  75.1951313  20.9430113  28.7052753  79.1281313
  21.6560113  29.2002753  79.2181313  21.1650113  28.1382753  78.5021313
  21.0810113  28.6942753  79.0491313  33.5210113  20.3642753  74.6001313
  32.8590113  19.7962753  74.6231313  33.3280113  20.8762753  73.9201313
  33.3950113  20.3562753  74.5031313  15.0990113  30.3482753  82.4481313
  14.4320113  30.8362753  82.7241313  15.7790113  30.8932753  82.4771313
  15.1010113  30.5002753  82.4931313  33.8440113  24.7422753  87.1561313
  34.0590113  23.9422753  86.8801313  32.9940113  24.8022753  86.9671313
  33.7500113  24.6332753  87.0871313  15.1650113  27.0322753  77.5511313
  14.9800113  26.1932753  77.7031313  15.8240113  26.9962753  76.9811313
  15.2350113  26.9032753  77.4891313  31.5230113  19.9222753  76.8791313
  32.2690113  19.5152753  77.0781313  31.7860113  20.6372753  76.4541313
  31.6720113  19.9682753  76.8461313  25.4660113  32.4082753  81.4551313
  24.9430113  33.0422753  81.1621313  25.7760113  32.0442753  80.7261313
  25.4340113  32.4482753  81.3041313  15.3370113  31.1962753  77.1261313
  15.8890113  31.7652753  77.4901313  15.1050113  30.6812753  77.7911313
  15.3840113  31.2042753  77.2781313  19.5410113  30.1962753  84.2151313
  20.0080113  30.4852753  84.8931313  20.1130113  29.7182753  83.7611313
  19.6950113  30.1682753  84.2481313  27.9770113  22.2102753  81.9521313
  28.3210113  22.3622753  82.7391313  27.5240113  21.4722753  82.0651313
  27.9610113  22.1232753  82.0851313  15.1670113  29.6452753  74.7541313
  15.9230113  29.2132753  74.8121313  15.1820113  30.1772753  75.4451313
  15.2810113  29.6602753  74.8651313  16.1070113  27.8662753  82.7591313
  16.5380113  27.7372753  82.0121313  15.9020113  28.7142753  82.7331313
  16.1400113  27.9722753  82.6451313  22.4530113  21.4302753  76.4091313
  22.4510113  21.3132753  75.5441313  22.2720113  22.2782753  76.5011313
  22.4260113  21.5382753  76.2951313  31.5070113  33.8572753  87.9061313
  30.8360113  34.3712753  88.1241313  31.5700113  33.9572753  87.0421313
  31.4170113  33.9482753  87.8111313  20.1910113  31.3822753  81.0411313
  20.3170113  32.2252753  81.2281313  20.8590113  30.9832753  81.4371313
  20.3090113  31.4482753  81.1271313  18.8060113  24.2622753  76.0431313
  18.6780113  23.8142753  76.7811313  18.2240113  23.9202753  75.4911313
  18.7010113  24.1452753  76.0711313  18.9730113  26.0922753  82.6421313
  18.1920113  26.0332753  82.2591313  19.0450113  25.3402753  83.0791313
  18.8680113  25.9732753  82.6501313  19.4030113  25.8292753  86.1101313
  19.4280113  25.1542753  85.5591313  18.7570113  26.3252753  85.7981313
  19.3120113  25.8022753  85.9831313  29.2980113  23.5422753  84.5061313
  28.6360113  23.8702753  84.9691313  29.4850113  24.1762753  83.9371313
  29.2280113  23.6842753  84.4901313  23.5030113  34.6062753  85.5021313
  23.2260113  33.9652753  84.9791313  23.2950113  35.3322753  85.0641313
  23.4320113  34.6192753  85.3601313  25.9430113  19.4482753  87.9351313
  26.0920113  18.6232753  87.6921313  26.3220113  19.5032753  88.7191313
  26.0210113  19.3342753  88.0151313  27.4910113  21.5112753  78.0171313
  27.9810113  22.2282753  77.9401313  26.7010113  21.7722753  77.7541313
  27.4470113  21.6552753  77.9671313  24.0730113  22.9812753  83.7421313
  24.5530113  23.6802753  83.9501313  24.4460113  22.3342753  84.1931313
  24.1990113  22.9892753  83.8391313  26.2620113  26.1502753  76.0161313
  26.2540113  26.8722753  75.5261313  25.6230113  26.2852753  76.5931313
  26.1670113  26.2772753  76.0291313  31.2340113  30.0202753  79.9971313
  31.5900113  29.6702753  80.7121313  31.2260113  29.3592753  79.4271313
  31.2860113  29.8702753  80.0181313  27.2790113  33.0862753  83.8411313
  26.6760113  32.7902753  83.2841313  27.8240113  33.5382753  83.3321313
  27.2700113  33.1092753  83.6831313  27.2920113  29.9372753  83.2411313
  26.4950113  30.1612753  83.5151313  27.5500113  29.3432753  83.8261313
  27.2120113  29.8822753  83.3681313  21.1840113  34.7492753  77.6891313
  21.0370113  33.9732753  78.0601313  21.8730113  34.6022753  77.1741313
  21.2640113  34.6122753  77.6681313  20.8550113  18.4922753  75.6771313
  20.9520113  18.3852753  76.5381313  20.1470113  18.9982753  75.6121313
  20.7650113  18.5512753  75.7951313  23.4760113  34.2652753  76.0911313
  24.0980113  34.4282753  76.6811313  23.5120113  34.9562753  75.5591313
  23.5730113  34.3912753  76.1001313  30.5520113  27.9352753  88.0871313
  30.6070113  28.0602753  87.2251313  31.3050113  28.2552753  88.3891313
  30.6710113  28.0002753  88.0041313  17.9770113  26.7992753  76.9201313
  18.3010113  26.0202753  76.6981313  18.6230113  27.1672753  77.3751313
  18.1200113  26.7382753  76.9541313  26.2830113  27.7412753  87.6871313
  26.1280113  28.3512753  88.2911313  26.8170113  27.1832753  88.0931313
  26.3390113  27.7492753  87.8361313  14.9740113  18.4602753  77.8881313
  15.1030113  17.7522753  77.3961313  14.6070113  18.1422753  78.6131313
  14.9390113  18.3082753  77.9231313  24.6670113  26.1412753  78.3451313
  24.7260113  26.7912753  78.9241313  24.4780113  25.4452753  78.8361313
  24.6480113  26.1342753  78.5031313  29.8930113  30.4702753  84.2141313
  29.4140113  30.7682753  83.5481313  29.5370113  29.6942753  84.3921313
  29.7700113  30.3992753  84.1421313  19.1630113  20.6582753  74.8571313
  18.6520113  20.7112753  74.1511313  19.9470113  20.8982753  74.5611313
  19.2030113  20.7012753  74.7091313  23.8900113  28.1882753  82.7761313
  23.0430113  27.9942753  82.8571313  24.2140113  28.0232753  83.5691313
  23.8120113  28.1352753  82.9051313  20.6420113  34.9182753  73.6621313
  21.0810113  34.2212753  73.9501313  20.8490113  35.5422753  74.2351313
  20.7380113  34.9072753  73.7891313  17.7380113  27.8812753  85.0921313
  18.4600113  28.3692753  85.0551313  17.4680113  27.8512753  84.2631313
  17.8050113  27.9492753  84.9641313  20.9680113  23.0522753  81.8271313
  21.8140113  22.8622753  81.9251313  20.5980113  22.2752753  81.6891313
  21.0380113  22.9092753  81.8211313  33.5850113  34.6362753  76.1541313
  34.2790113  34.1692753  75.9061313  33.0460113  34.0382753  76.4911313
  33.6080113  34.4782753  76.1671313  15.7890113  24.3902753  78.4821313
  16.2780113  24.0982753  79.1431313  15.9180113  23.7972753  77.8551313
  15.8800113  24.2592753  78.4871313  30.8240113  27.4122753  85.3331313
  30.8170113  26.6362753  85.7311313  29.9830113  27.6462753  85.3261313
  30.6990113  27.3322753  85.3911313  20.3140113  25.8242753  73.9681313
  19.7040113  25.4192753  74.4421313  19.9280113  25.9422753  73.1951313
  20.1670113  25.7812753  73.9241313  32.0800113  27.4832753  82.7701313
  31.7940113  27.8842753  83.4901313  32.9400113  27.4212753  82.8971313
  32.1650113  27.5332753  82.8951313  21.7690113  24.2852753  76.6781313
  22.0410113  25.1112753  76.7451313  20.9060113  24.3602753  76.5821313
  21.6820113  24.4182753  76.6731313  15.2490113  20.2552753  83.2141313
  15.2930113  20.5992753  82.4131313  16.0040113  20.4922753  83.5811313
  15.3670113  20.3412753  83.1501313  33.2110113  33.1162753  83.2991313
  33.5010113  33.3732753  82.5181313  33.9060113  33.2122753  83.8181313
  33.3570113  33.1682753  83.2601313  29.8160113  31.7192753  75.2811313
  30.1500113  30.9132753  75.3161313  29.0610113  31.6472753  75.7111313
  29.7540113  31.5892753  75.3501313  30.2980113  23.5532753  80.9401313
  29.5530113  23.2302753  81.2581313  30.3000113  24.3792753  81.2201313
  30.1880113  23.6272753  81.0281313  32.7380113  29.5132753  88.6921313
  33.3660113  28.9642753  88.4361313  32.6770113  30.0782753  88.0301313
  32.8220113  29.5162753  88.5561313  27.1900113  29.5942753  74.6841313
  27.8740113  29.0802753  74.5151313  26.7730113  29.6402753  73.9191313
  27.2290113  29.5252753  74.5461313  21.8720113  30.7442753  85.9881313
  21.5740113  31.3362753  86.5551313  21.9270113  31.1862753  85.2391313
  21.8360113  30.8972753  85.9611313  29.2100113  19.8832753  88.4011313
  29.9540113  20.3352753  88.3381313  28.6440113  20.3532753  87.9321313
  29.2370113  20.0202753  88.3231313  24.3880113  27.1672753  85.4791313
  24.8640113  27.5412753  86.1071313  23.5650113  27.3012753  85.7381313
  24.3370113  27.2422753  85.6101313  21.0980113  22.7702753  88.2201313
  21.2590113  22.0262753  88.6471313  21.0530113  22.5212753  87.3851313
  21.1150113  22.6232753  88.1601313  23.6520113  34.5602753  80.7071313
  24.1980113  35.2392753  80.7611313  23.3020113  34.6422753  79.9121313
  23.6810113  34.6732753  80.5971313  30.4950113  17.8632753  86.0711313
  30.2150113  18.6882753  86.0271313  31.2110113  17.9162753  86.5671313
  30.5600113  17.9932753  86.1381313  22.8500113  18.5782753  88.1001313
  23.5550113  18.8982753  87.6981313  23.0910113  17.7712753  88.3271313
  22.9890113  18.5062753  88.0741313  21.8350113  32.7882753  84.0961313
  21.2110113  33.3702753  83.9141313  22.0830113  32.5022753  83.3101313
  21.7790113  32.8322753  83.9531313  31.9160113  24.1182753  74.9281313
  32.2940113  24.7952753  74.5281313  31.0740113  24.3422753  74.9591313
  31.8470113  24.2512753  74.8731313  23.4290113  27.5642753  74.0111313
  22.6240113  27.3872753  73.7261313  23.3960113  28.4152753  74.2031313
  23.3050113  27.6632753  73.9981313  19.3590113  23.6312753  84.1611313
  19.7990113  23.5282753  83.4151313  19.9040113  23.3182753  84.7661313
  19.5040113  23.5702753  84.1401313  27.0630113  24.2702753  86.0511313
  27.3650113  24.6902753  86.7541313  27.0990113  23.4302753  86.2831313
  27.1130113  24.2082753  86.1891313  29.6110113  23.7172753  78.3031313
  29.8180113  23.5162753  79.1271313  30.3670113  23.9852753  77.9611313
  29.7530113  23.7272753  78.3741313  22.9060113  18.6162753  84.2081313
  22.0800113  18.4672753  84.4451313  22.8660113  18.6512753  83.3371313
  22.7780113  18.5992753  84.1141313  30.6330113  19.8002753  79.7771313
  29.9190113  19.3292753  79.9481313  30.4710113  20.1412753  78.9911313
  30.5040113  19.7812753  79.6861313  31.0760113  27.7442753  78.1571313
  31.5520113  27.0152753  78.1091313  30.2550113  27.4582753  78.0811313
  31.0250113  27.5942753  78.1381313  20.3770113  35.8632753  84.3131313
  20.3880113  35.9222753  85.1831313  19.9520113  35.1162753  84.1631313
  20.3160113  35.7612753  84.4191313  18.5350113  21.7582753  77.4681313
  18.6610113  21.4292753  76.6701313  17.7230113  21.5092753  77.6671313
  18.4340113  21.6732753  77.3801313  27.2920113  28.9112753  80.5121313
  27.3680113  29.2522753  81.3111313  27.4610113  28.0642753  80.6331313
  27.3280113  28.8362753  80.6481313  24.8140113  28.1852753  80.0771313
  24.5160113  27.8702753  80.8341313  25.5090113  28.6582753  80.3121313
  24.8730113  28.2082753  80.2241313  25.0360113  32.3032753  88.1041313
  25.7230113  32.1892753  88.6291313  25.1700113  33.0942753  87.7601313
  25.1570113  32.4032753  88.1311313  27.7250113  25.5772753  88.4911313
  27.4700113  24.8582753  88.9131313  28.5460113  25.6932753  88.7611313
  27.8090113  25.4882753  88.5931313  28.7430113  35.1412753  82.6071313
  28.2920113  35.7842753  82.9861313  29.4510113  35.0622753  83.1121313
  28.7810113  35.2242753  82.7381313  25.4440113  30.2312753  85.5371313
  24.7500113  30.6332753  85.8801313  26.1210113  30.6642753  85.8761313
  25.4410113  30.3542753  85.6381313  18.5120113  23.7692753  87.8841313
  18.8870113  24.3882753  87.3971313  19.1860113  23.2952753  88.1691313
  18.6670113  23.7912753  87.8541313  16.2870113  22.2172753  87.1591313
  16.3640113  22.0482753  86.3061313  17.0330113  22.6232753  87.3561313
  16.4080113  22.2522753  87.0621313  31.8460113  24.8572753  77.5991313
  31.9490113  24.7992753  76.7351313  32.5870113  24.5252753  77.9171313
  31.9710113  24.8002753  77.5181313  25.7660113  31.8222753  78.7061313
  25.5610113  32.6552753  78.5471313  24.9910113  31.4402753  78.8281313
  25.6210113  31.8892753  78.7011313  30.9480113  25.0032753  86.9551313
  30.9460113  24.1402753  87.0791313  31.0150113  25.3272753  87.7621313
  30.9580113  24.9232753  87.0921313  15.6840113  27.4432753  87.3831313
  16.0040113  27.6622753  86.6021313  15.5840113  26.5782753  87.3281313
  15.7160113  27.3482753  87.2601313  17.1400113  23.3792753  74.0011313
  16.4680113  23.3932753  74.5571313  17.2350113  22.5312753  73.8171313
  17.0550113  23.2562753  74.0561313  25.8210113  19.9932753  81.5911313
  25.1210113  20.5112753  81.5351313  25.8590113  19.6132753  80.8071313
  25.7230113  20.0142753  81.4671313  21.1280113  32.0842753  75.1151313
  21.5690113  32.1642753  75.8631313  20.3230113  31.8682753  75.3731313
  21.0740113  32.0642753  75.2641313  29.4190113  20.5092753  84.3911313
  30.2740113  20.6082753  84.5361313  29.0500113  21.0622753  84.9561313
  29.4910113  20.6062753  84.4961313  20.4470113  26.7352753  88.7681313
  20.0510113  27.5092753  88.8431313  20.0410113  26.3622753  88.0921313
  20.3290113  26.7942753  88.6791313  29.7230113  25.7892753  82.8821313
  30.3890113  26.3302753  83.0421313  29.3780113  26.1002753  82.1431313
  29.7700113  25.9152753  82.7971313  30.0360113  33.8552753  78.6891313
  29.8620113  33.2012753  79.2391313  30.7490113  33.5842753  78.2661313
  30.1160113  33.7182753  78.7081313  18.4570113  31.1542753  75.7161313
  18.2130113  30.8472753  76.4961313  18.4240113  30.4512753  75.2001313
  18.4160113  31.0052753  75.7551313  21.2760113  29.3992753  74.4591313
  20.4580113  29.1312753  74.5991313  21.2480113  30.2512753  74.6441313
  21.1510113  29.4862753  74.5071313  20.8760113  19.7122753  86.2181313
  20.0120113  19.7962753  86.2981313  21.0960113  19.1982753  86.8871313
  20.7810113  19.6492753  86.3291313  32.8940113  18.3472753  87.5471313
  32.8420113  18.3032753  88.4171313  33.5810113  17.8442753  87.3571313
  32.9880113  18.2672753  87.6471313  24.9790113  20.4602753  84.5921313
  24.2420113  20.0062753  84.7051313  25.5500113  20.0582753  85.1151313
  24.9540113  20.3332753  84.6861313  27.7110113  31.3082753  86.3801313
  27.9170113  31.6092753  87.1721313  27.6500113  32.0302753  85.8951313
  27.7320113  31.4592753  86.4251313  23.2780113  18.0412753  74.4231313
  23.3560113  18.2882753  73.5901313  22.5350113  18.4182753  74.6811313
  23.1800113  18.1332753  74.3381313  32.5230113  29.9472753  85.8381313
  32.4910113  29.0852753  85.7031313  31.8300113  30.2492753  85.4041313
  32.4160113  29.8642753  85.7541313  30.6280113  33.2072753  84.6351313
  31.1550113  33.1242753  83.9441313  30.2370113  32.4292753  84.6891313
  30.6480113  33.0802753  84.5411313  18.0960113  19.7952753  86.8661313
  17.7530113  19.0282753  86.6321313  17.4010113  20.3192753  86.9301313
  17.9430113  19.7592753  86.8411313  27.1420113  18.6512753  83.8431313
  27.8120113  19.1952753  83.9701313  26.6390113  19.0752753  83.2701313
  27.1670113  18.7942753  83.7771313  26.5010113  24.4592753  81.3361313
  27.0520113  23.8522753  81.6361313  26.0760113  24.7222753  82.0511313
  26.5200113  24.4082753  81.4851313  16.7490113  23.1092753  80.8221313
  16.3810113  23.4112753  81.5531313  17.2830113  22.4802753  81.1061313
  16.7730113  23.0612753  80.9721313  16.4370113  31.5172753  88.3331313
  15.8630113  31.9332753  88.8421313  17.1700113  31.9822753  88.4281313
  16.4610113  31.6472753  88.4221313  28.4710113  26.2902753  77.8981313
  28.5390113  25.4402753  78.0791313  27.6480113  26.3762753  77.6201313
  28.3590113  26.1772753  77.8841313  18.2230113  34.7842753  77.1081313
  18.0780113  34.9402753  76.2621313  19.0890113  34.8632753  77.1861313
  18.3300113  34.8192753  76.9951313  22.3900113  27.1812753  76.8361313
  22.4900113  27.3202753  75.9811313  23.2080113  27.1212753  77.1321313
  22.5250113  27.1922753  76.7531313  27.6250113  31.5102753  76.6381313
  27.3740113  31.3822753  77.4641313  27.3080113  30.8152753  76.2171313
  27.5410113  31.3892753  76.6981313  32.2690113  23.1682753  84.7581313
  31.4360113  23.4182753  84.6861313  32.2130113  22.3282753  84.9871313
  32.1380113  23.0812753  84.7811313  18.9100113  33.5992753  83.5851313
  18.8310113  32.7892753  83.2691313  18.4660113  34.0862753  83.0131313
  18.8330113  33.5512753  83.4541313  24.5110113  29.7182753  76.0681313
  25.2280113  29.3712753  75.7121313  24.4770113  30.5182753  75.7201313
  24.6120113  29.7852753  75.9641313  16.4820113  35.8432753  87.1661313
  16.9750113  35.7872753  87.8841313  16.6700113  35.1102753  86.7311313
  16.5830113  35.7262753  87.2081313  25.9200113  18.3592753  60.3068903
  25.6750113  18.8472753  59.6268903  26.7830113  18.2862753  60.2068903
  26.0110113  18.4202753  60.1918903  25.7290113  25.2752753  64.9778903
  25.2050113  25.8712753  65.3408903  26.1260113  24.9072753  65.6618903
  25.7100113  25.3092753  65.1328903  15.5980113  29.4152753  60.4338903
  15.1570113  29.5332753  61.1768903  15.3150113  28.6402753  60.1488903
  15.4910113  29.3182753  60.5018903  15.3410113  23.2072753  56.9408903
  14.5630113  23.3692753  56.5808903  15.3800113  22.3362753  56.9628903
  15.2320113  23.1022753  56.8908903  18.4800113  28.4702753  55.6128903
  18.0880113  28.0992753  54.9268903  18.4000113  27.8722753  56.2418903
  18.4100113  28.3272753  55.6038903  28.4000113  26.3422753  61.6538903
  28.4800113  26.3462753  60.7848903  27.8160113  25.7102753  61.8028903
  28.3250113  26.2492753  61.5478903  18.1070113  30.1112753  59.5128903
  18.7150113  29.9412753  60.1158903  17.3560113  29.9712753  59.9338903
  18.0860113  30.0652753  59.6638903  22.3890113  19.4462753  59.4618903
  22.3190113  20.1232753  58.9158903  23.1300113  19.0582753  59.2128903
  22.4880113  19.4892753  59.3438903  16.9980113  33.2022753  55.5898903
  17.4650113  33.2862753  54.8578903  17.4530113  32.6242753  56.0588903
  17.1340113  33.1292753  55.5508903  15.5380113  32.1502753  66.6888903
  15.6670113  31.8702753  67.5048903  14.9280113  31.6092753  66.3798903
  15.4670113  32.0292753  66.7638903  22.1120113  29.6752753  71.7558903
  21.8760113  29.6722753  72.5958903  21.3640113  29.5272753  71.3318903
  21.9660113  29.6522753  71.8168903  16.9840113  26.6712753  60.8908903
  16.5220113  26.2792753  60.2638903  17.6840113  26.1582753  60.9828903
  17.0190113  26.5382753  60.8118903  21.4920113  22.2812753  66.2378903
  22.1700113  22.2992753  65.6888903  21.4470113  21.4452753  66.4828903
  21.5850113  22.1602753  66.1928903  22.0940113  32.8672753  69.0188903
  22.2320113  33.6272753  68.6118903  22.8850113  32.5022753  69.0458903
  22.2310113  32.9262753  68.9628903  18.9850113  24.7712753  60.9138903
  19.8020113  24.5842753  61.1568903  18.5080113  24.1572753  61.3098903
  19.0350113  24.6532753  61.0088903  23.1890113  30.7522753  63.5238903
  23.5370113  29.9532753  63.5538903  23.8540113  31.2562753  63.2688903
  23.3390113  30.7082753  63.4908903  23.2460113  30.2012753  59.7348903
  23.5770113  29.5572753  60.2208903  23.4860113  29.9902753  58.9238903
  23.3300113  30.0752753  59.6868903  25.2140113  24.3322753  71.0738903
  24.3660113  24.2332753  70.8958903  25.2430113  25.0772753  71.5278903
  25.0930113  24.4282753  71.1148903  19.5820113  19.8652753  60.1798903
  19.2860113  20.3662753  59.5298903  20.4490113  19.9432753  60.1228903
  19.6660113  19.9512753  60.0758903  29.7720113  17.2922753  70.1878903
  29.6140113  18.0612753  69.8058903  29.0000113  17.0722753  70.5318903
  29.6340113  17.3732753  70.1828903  22.5610113  19.0072753  62.4028903
  22.6340113  19.8672753  62.5318903  22.5230113  18.9322753  61.5348903
  22.5660113  19.1232753  62.2938903  27.2340113  21.9332753  54.7018903
  26.7840113  22.6142753  55.0088903  27.3480113  21.4292753  55.4048903
  27.1850113  21.9592753  54.8508903  15.4400113  24.4322753  63.9038903
  15.1840113  25.2632753  63.8288903  14.7760113  24.0492753  64.3208903
  15.3040113  24.4982753  63.9548903  15.3500113  34.1422753  61.8038903
  14.7580113  34.7002753  61.4908903  15.7760113  33.8732753  61.0918903
  15.3260113  34.1842753  61.6528903  21.1900113  31.9862753  59.2838903
  20.6110113  31.7112753  59.8758903  21.8140113  31.3772753  59.3088903
  21.1970113  31.8562753  59.3748903  27.3330113  34.2742753  56.8058903
  28.0600113  34.7462753  56.9078903  27.5620113  33.4802753  57.0858903
  27.4750113  34.2272753  56.8628903  25.5010113  34.6662753  58.7958903
  25.7150113  35.1932753  59.4578903  26.2680113  34.4922753  58.4168903
  25.6460113  34.7182753  58.8378903  18.4690113  19.2492753  64.3948903
  17.9480113  18.6212753  64.0868903  19.0600113  18.8122753  64.8658903
  18.4800113  19.0912753  64.4188903  21.7750113  21.3822753  73.6928903
  21.8920113  20.9282753  72.9568903  22.0630113  22.1802753  73.4898903
  21.8350113  21.4332753  73.5538903  16.8950113  32.8122753  59.7348903
  17.5510113  32.2372753  59.7498903  17.2840113  33.5612753  59.5138903
  17.0500113  32.8372753  59.7048903  27.9400113  34.6762753  67.1008903
  28.6840113  35.1322753  67.0908903  27.8190113  34.4622753  66.2638903
  28.0320113  34.7122753  66.9758903  17.5080113  20.9792753  72.6768903
  16.7300113  20.5892753  72.6048903  17.9990113  20.5672753  72.0858903
  17.4650113  20.8602753  72.5788903  17.7130113  31.2992753  63.2348903
  18.1360113  30.9432753  62.5608903  18.0370113  30.8772753  63.9268903
  17.8230113  31.1842753  63.2378903  20.9440113  34.1512753  62.5308903
  21.7880113  34.2552753  62.3358903  20.6470113  34.9692753  62.5988903
  21.0250113  34.2872753  62.5118903  24.1570113  18.6222753  71.8448903
  24.3350113  17.8132753  71.5698903  24.0140113  19.0632753  71.1058903
  24.1620113  18.5682753  71.6948903  25.4730113  23.8872753  55.7388903
  25.7540113  24.6752753  55.9878903  24.6970113  24.0522753  55.3758903
  25.4000113  24.0282753  55.7218903  19.9420113  35.3702753  68.2708903
  20.2340113  35.3032753  69.0908903  19.3160113  34.7652753  68.2258903
  19.8930113  35.2712753  68.3858903  32.3030113  20.2292753  66.3658903
  33.0600113  20.3012753  65.9378903  32.3660113  19.4562753  66.7648903
  32.4240113  20.1262753  66.3608903  14.8560113  21.5272753  70.2628903
  14.8520113  22.1142753  70.9088903  15.4500113  21.8392753  69.7058903
  14.9430113  21.6602753  70.2758903  27.1940113  31.8612753  70.8048903
  27.1600113  32.2432753  71.5888903  28.0480113  31.8192753  70.6338903
  27.3150113  31.9112753  70.8958903  24.3320113  32.0582753  55.5548903
  24.1510113  32.6032753  56.2118903  25.0980113  32.3482753  55.2538903
  24.4180113  32.1822753  55.6078903  27.8390113  19.9542753  56.6088903
  28.3790113  19.2722753  56.6848903  27.9010113  20.3522753  57.3828903
  27.9280113  19.9122753  56.7348903  15.7930113  21.1222753  59.1778903
  15.6790113  20.2582753  59.2088903  15.3180113  21.4162753  59.8478903
  15.7060113  21.0382753  59.2808903  17.9350113  33.5322753  67.3928903
  17.2370113  33.0242753  67.5188903  18.1950113  33.3272753  66.5848903
  17.8700113  33.4272753  67.2918903  25.0970113  22.3302753  57.9228903
  24.5890113  21.6682753  57.6688903  25.1490113  22.8342753  57.2128903
  25.0300113  22.3072753  57.7808903  25.6460113  35.0252753  68.3028903
  26.4140113  34.9452753  67.8968903  25.0630113  34.9042753  67.6648903
  25.6730113  34.9952753  68.1488903  25.0970113  19.2712753  57.8138903
  24.6420113  18.8692753  57.1878903  25.8700113  19.4262753  57.4388903
  25.1440113  19.2352753  57.6658903  23.6950113  21.6382753  62.3358903
  23.7690113  22.2062753  61.6778903  23.8160113  22.1302753  63.0458903
  23.7230113  21.7952753  62.3438903  19.2960113  32.3832753  69.9598903
  20.1370113  32.4462753  69.7378903  19.2590113  32.7802753  70.7358903
  19.4150113  32.4512753  70.0418903  18.3030113  17.4612753  60.6838903
  18.8390113  18.1492753  60.6738903  18.3060113  17.1872753  59.8558903
  18.3820113  17.5222753  60.5598903  21.2590113  27.8942753  64.7088903
  21.4310113  27.6842753  65.5378903  20.6040113  27.3602753  64.4928903
  21.1880113  27.7842753  64.7998903  22.0090113  27.8322753  67.2988903
  22.0620113  28.6792753  67.5008903  21.7240113  27.4622753  68.0358903
  21.9750113  27.9022753  67.4368903  28.1860113  28.5272753  66.4288903
  27.6720113  28.1152753  66.9998903  28.0600113  29.3712753  66.6098903
  28.0920113  28.5912753  66.5398903  28.7430113  17.7522753  61.0598903
  28.7920113  17.4342753  61.8708903  29.0660113  17.1082753  60.5668903
  28.7980113  17.6102753  61.1068903  14.8300113  32.2032753  73.5098903
  15.5860113  32.5522753  73.7678903  15.0070113  31.3502753  73.4528903
  14.9680113  32.1282753  73.5398903  31.2070113  21.9882753  69.3678903
  31.9790113  21.7632753  69.7048903  30.7320113  22.2052753  70.0678903
  31.2510113  21.9872753  69.5208903  18.7510113  21.2712753  62.3378903
  19.0230113  20.8412753  61.6298903  18.5750113  20.6352753  62.9088903
  18.7650113  21.1142753  62.3178903  18.5750113  28.6982753  61.8868903
  19.4260113  28.6182753  61.7138903  18.2180113  28.0162753  61.4748903
  18.6480113  28.5852753  61.7998903  17.3420113  35.4232753  63.1238903
  16.6690113  34.9252753  62.8788903  17.7450113  35.6082753  62.3728903
  17.3020113  35.3772753  62.9768903  16.8920113  22.3732753  65.4198903
  17.7350113  22.5932753  65.3768903  16.5030113  22.9462753  64.8888903
  16.9590113  22.4902753  65.3348903  33.6730113  33.4752753  70.8098903
  32.9910113  33.7852753  70.3628903  33.3040113  33.0172753  71.4548903
  33.5170113  33.4532753  70.8388903  29.3340113  25.5032753  56.1408903
  29.1140113  26.2342753  55.7188903  28.8860113  25.5542753  56.8878903
  29.2350113  25.6182753  56.1888903  20.9430113  28.7052753  60.1218903
  21.6560113  29.2002753  60.2118903  21.1650113  28.1382753  59.4958903
  21.0810113  28.6942753  60.0428903  33.5210113  20.3642753  55.5938903
  32.8590113  19.7962753  55.6168903  33.3280113  20.8762753  54.9138903
  33.3950113  20.3562753  55.4968903  15.0990113  30.3482753  63.4418903
  14.4320113  30.8362753  63.7178903  15.7790113  30.8932753  63.4708903
  15.1010113  30.5002753  63.4868903  22.7460113  24.0582753  73.5378903
  22.2620113  24.6352753  73.9798903  22.7180113  24.3532753  72.7168903
  22.6700113  24.1872753  73.4818903  33.8440113  24.7422753  68.1498903
  34.0590113  23.9422753  67.8738903  32.9940113  24.8022753  67.9608903
  33.7500113  24.6332753  68.0808903  15.1650113  27.0322753  58.5448903
  14.9800113  26.1932753  58.6968903  15.8240113  26.9962753  57.9748903
  15.2350113  26.9032753  58.4828903  31.5230113  19.9222753  57.8728903
  32.2690113  19.5152753  58.0718903  31.7860113  20.6372753  57.4478903
  31.6720113  19.9682753  57.8398903  25.4660113  32.4082753  62.4488903
  24.9430113  33.0422753  62.1558903  25.7760113  32.0442753  61.7198903
  25.4340113  32.4482753  62.2978903  15.3370113  31.1962753  58.1198903
  15.8890113  31.7652753  58.4838903  15.1050113  30.6812753  58.7848903
  15.3840113  31.2042753  58.2718903  19.5410113  30.1962753  65.2088903
  20.0080113  30.4852753  65.8868903  20.1130113  29.7182753  64.7548903
  19.6950113  30.1682753  65.2418903  27.9770113  22.2102753  62.9458903
  28.3210113  22.3622753  63.7328903  27.5240113  21.4722753  63.0588903
  27.9610113  22.1232753  63.0788903  15.1670113  29.6452753  55.7478903
  15.9230113  29.2132753  55.8058903  15.1820113  30.1772753  56.4388903
  15.2810113  29.6602753  55.8588903  16.1070113  27.8662753  63.7528903
  16.5380113  27.7372753  63.0058903  15.9020113  28.7142753  63.7268903
  16.1400113  27.9722753  63.6388903  22.4530113  21.4302753  57.4028903
  22.4510113  21.3132753  56.5378903  22.2720113  22.2782753  57.4948903
  22.4260113  21.5382753  57.2888903  31.5070113  33.8572753  68.8998903
  30.8360113  34.3712753  69.1178903  31.5700113  33.9572753  68.0358903
  31.4170113  33.9482753  68.8048903  20.1910113  31.3822753  62.0348903
  20.3170113  32.2252753  62.2218903  20.8590113  30.9832753  62.4308903
  20.3090113  31.4482753  62.1208903  18.3210113  24.8652753  71.8968903
  17.7850113  24.3592753  72.3648903  18.3410113  24.4752753  71.1168903
  18.2440113  24.7322753  71.8508903  18.8060113  24.2622753  57.0368903
  18.6780113  23.8142753  57.7748903  18.2240113  23.9202753  56.4848903
  18.7010113  24.1452753  57.0648903  18.9730113  26.0922753  63.6358903
  18.1920113  26.0332753  63.2528903  19.0450113  25.3402753  64.0728903
  18.8680113  25.9732753  63.6438903  19.4030113  25.8292753  67.1038903
  19.4280113  25.1542753  66.5528903  18.7570113  26.3252753  66.7918903
  19.3120113  25.8022753  66.9768903  29.2980113  23.5422753  65.4998903
  28.6360113  23.8702753  65.9628903  29.4850113  24.1762753  64.9308903
  29.2280113  23.6842753  65.4838903  23.5030113  34.6062753  66.4958903
  23.2260113  33.9652753  65.9728903  23.2950113  35.3322753  66.0578903
  23.4320113  34.6192753  66.3538903  25.9430113  19.4482753  68.9288903
  26.0920113  18.6232753  68.6858903  26.3220113  19.5032753  69.7128903
  26.0210113  19.3342753  69.0088903  27.4910113  21.5112753  59.0108903
  27.9810113  22.2282753  58.9338903  26.7010113  21.7722753  58.7478903
  27.4470113  21.6552753  58.9608903  17.2020113  27.1842753  72.6628903
  17.1650113  27.6852753  71.9488903  17.5330113  26.4322753  72.3678903
  17.2450113  27.1462753  72.5138903  28.8050113  29.3892753  70.9208903
  29.2890113  30.1072753  71.0188903  29.1990113  28.9622753  70.2698903
  28.9350113  29.4322753  70.8388903  23.1010113  32.2342753  72.0978903
  23.4550113  32.0562753  72.8748903  22.6650113  31.5052753  71.8988903
  23.0890113  32.1002753  72.1838903  24.0730113  22.9812753  64.7358903
  24.5530113  23.6802753  64.9438903  24.4460113  22.3342753  65.1868903
  24.1990113  22.9892753  64.8328903  26.2620113  26.1502753  57.0098903
  26.2540113  26.8722753  56.5198903  25.6230113  26.2852753  57.5868903
  26.1670113  26.2772753  57.0228903  27.2790113  33.0862753  64.8348903
  26.6760113  32.7902753  64.2778903  27.8240113  33.5382753  64.3258903
  27.2700113  33.1092753  64.6768903  27.2920113  29.9372753  64.2348903
  26.4950113  30.1612753  64.5088903  27.5500113  29.3432753  64.8198903
  27.2120113  29.8822753  64.3618903  21.1840113  34.7492753  58.6828903
  21.0370113  33.9732753  59.0538903  21.8730113  34.6022753  58.1678903
  21.2640113  34.6122753  58.6618903  20.8550113  18.4922753  56.6708903
  20.9520113  18.3852753  57.5318903  20.1470113  18.9982753  56.6058903
  20.7650113  18.5512753  56.7888903  23.4760113  34.2652753  57.0848903
  24.0980113  34.4282753  57.6748903  23.5120113  34.9562753  56.5528903
  23.5730113  34.3912753  57.0938903  30.5520113  27.9352753  69.0808903
  30.6070113  28.0602753  68.2188903  31.3050113  28.2552753  69.3828903
  30.6710113  28.0002753  68.9978903  26.7430113  33.2842753  73.3578903
  26.9070113  33.5672753  74.1668903  27.0060113  33.9452753  72.8528903
  26.8060113  33.4242753  73.4028903  31.5840113  18.2332753  72.0678903
  30.9470113  17.8332753  71.6258903  31.6100113  17.8022753  72.8258903
  31.4940113  18.1112753  72.1138903  17.9770113  26.7992753  57.9138903
  18.3010113  26.0202753  57.6918903  18.6230113  27.1672753  58.3688903
  18.1200113  26.7382753  57.9478903  26.2830113  27.7412753  68.6808903
  26.1280113  28.3512753  69.2848903  26.8170113  27.1832753  69.0868903
  26.3390113  27.7492753  68.8298903  14.9740113  18.4602753  58.8818903
  15.1030113  17.7522753  58.3898903  14.6070113  18.1422753  59.6068903
  14.9390113  18.3082753  58.9168903  24.6670113  26.1412753  59.3388903
  24.7260113  26.7912753  59.9178903  24.4780113  25.4452753  59.8298903
  24.6480113  26.1342753  59.4968903  29.8930113  30.4702753  65.2078903
  29.4140113  30.7682753  64.5418903  29.5370113  29.6942753  65.3858903
  29.7700113  30.3992753  65.1358903  19.1630113  20.6582753  55.8508903
  18.6520113  20.7112753  55.1448903  19.9470113  20.8982753  55.5548903
  19.2030113  20.7012753  55.7028903  23.8900113  28.1882753  63.7698903
  23.0430113  27.9942753  63.8508903  24.2140113  28.0232753  64.5628903
  23.8120113  28.1352753  63.8988903  20.6420113  34.9182753  54.6558903
  21.0810113  34.2212753  54.9438903  20.8490113  35.5422753  55.2288903
  20.7380113  34.9072753  54.7828903  17.7380113  27.8812753  66.0858903
  18.4600113  28.3692753  66.0488903  17.4680113  27.8512753  65.2568903
  17.8050113  27.9492753  65.9578903  20.9680113  23.0522753  62.8208903
  21.8140113  22.8622753  62.9188903  20.5980113  22.2752753  62.6828903
  21.0380113  22.9092753  62.8148903  15.7890113  24.3902753  59.4758903
  16.2780113  24.0982753  60.1368903  15.9180113  23.7972753  58.8488903
  15.8800113  24.2592753  59.4808903  20.3140113  25.8242753  54.9618903
  19.7040113  25.4192753  55.4358903  19.9280113  25.9422753  54.1888903
  20.1670113  25.7812753  54.9178903  17.1330113  28.9332753  70.3638903
  16.7120113  28.4152753  69.8028903  16.7810113  29.7192753  70.2208903
  17.0190113  28.9732753  70.2598903  21.7690113  24.2852753  57.6718903
  22.0410113  25.1112753  57.7388903  20.9060113  24.3602753  57.5758903
  21.6820113  24.4182753  57.6668903  29.7420113  21.4072753  72.3038903
  29.2170113  21.8662753  72.8278903  29.3810113  20.6122753  72.2978903
  29.6110113  21.3572753  72.3798903  15.2490113  20.2552753  64.2078903
  15.2930113  20.5992753  63.4068903  16.0040113  20.4922753  64.5748903
  15.3670113  20.3412753  64.1438903  28.2340113  24.9762753  72.3798903
  28.3070113  25.0802753  73.2428903  27.6000113  25.5342753  72.1588903
  28.1510113  25.0742753  72.4748903  30.5020113  25.2952753  70.7448903
  30.8210113  26.0812753  70.9478903  30.1320113  25.0252753  71.4878903
  30.4950113  25.3712753  70.8848903  30.2980113  23.5532753  61.9338903
  29.5530113  23.2302753  62.2518903  30.3000113  24.3792753  62.2138903
  30.1880113  23.6272753  62.0218903  33.2000113  25.8372753  73.4798903
  33.1480113  25.4962753  72.6788903  33.9370113  26.3042753  73.4578903
  33.3010113  25.8562753  73.3578903  32.7380113  29.5132753  69.6858903
  33.3660113  28.9642753  69.4298903  32.6770113  30.0782753  69.0238903
  32.8220113  29.5162753  69.5498903  27.1900113  29.5942753  55.6778903
  27.8740113  29.0802753  55.5088903  26.7730113  29.6402753  54.9128903
  27.2290113  29.5252753  55.5398903  21.8720113  30.7442753  66.9818903
  21.5740113  31.3362753  67.5488903  21.9270113  31.1862753  66.2328903
  21.8360113  30.8972753  66.9548903  19.8510113  29.6942753  70.3798903
  19.0450113  29.4042753  70.5468903  19.7620113  30.5622753  70.3858903
  19.7190113  29.7792753  70.4048903  29.2100113  19.8832753  69.3948903
  29.9540113  20.3352753  69.3318903  28.6440113  20.3532753  68.9258903
  29.2370113  20.0202753  69.3168903  24.3880113  27.1672753  66.4728903
  24.8640113  27.5412753  67.1008903  23.5650113  27.3012753  66.7318903
  24.3370113  27.2422753  66.6038903  21.0980113  22.7702753  69.2138903
  21.2590113  22.0262753  69.6408903  21.0530113  22.5212753  68.3788903
  21.1150113  22.6232753  69.1538903  23.6520113  34.5602753  61.7008903
  24.1980113  35.2392753  61.7548903  23.3020113  34.6422753  60.9058903
  23.6810113  34.6732753  61.5908903  30.4950113  17.8632753  67.0648903
  30.2150113  18.6882753  67.0208903  31.2110113  17.9162753  67.5608903
  30.5600113  17.9932753  67.1318903  22.8500113  18.5782753  69.0938903
  23.5550113  18.8982753  68.6918903  23.0910113  17.7712753  69.3208903
  22.9890113  18.5062753  69.0678903  21.8350113  32.7882753  65.0898903
  21.2110113  33.3702753  64.9078903  22.0830113  32.5022753  64.3038903
  21.7790113  32.8322753  64.9468903  30.0530113  31.9722753  70.5828903
  30.3990113  32.2422753  71.3368903  30.3470113  32.5542753  70.0028903
  30.1480113  32.0982753  70.6088903  31.9160113  24.1182753  55.9218903
  32.2940113  24.7952753  55.5218903  31.0740113  24.3422753  55.9528903
  31.8470113  24.2512753  55.8668903  23.4290113  27.5642753  55.0048903
  22.6240113  27.3872753  54.7198903  23.3960113  28.4152753  55.1968903
  23.3050113  27.6632753  54.9918903  19.3590113  23.6312753  65.1548903
  19.7990113  23.5282753  64.4088903  19.9040113  23.3182753  65.7598903
  19.5040113  23.5702753  65.1338903  27.3750113  22.7332753  70.7468903
  26.7270113  23.2032753  71.0948903  27.9400113  22.6442753  71.4058903
  27.3630113  22.7892753  70.8958903  27.0630113  24.2702753  67.0448903
  27.3650113  24.6902753  67.7478903  27.0990113  23.4302753  67.2768903
  27.1130113  24.2082753  67.1828903  24.4880113  34.4372753  70.9698903
  24.9660113  33.8372753  70.5538903  24.1370113  33.9942753  71.6348903
  24.5070113  34.2832753  71.0068903  29.6110113  23.7172753  59.2968903
  29.8180113  23.5162753  60.1208903  30.3670113  23.9852753  58.9548903
  29.7530113  23.7272753  59.3678903  22.9060113  18.6162753  65.2018903
  22.0800113  18.4672753  65.4388903  22.8660113  18.6512753  64.3308903
  22.7780113  18.5992753  65.1078903  30.6330113  19.8002753  60.7708903
  29.9190113  19.3292753  60.9418903  30.4710113  20.1412753  59.9848903
  30.5040113  19.7812753  60.6798903  24.5470113  29.6562753  69.9898903
  23.7520113  29.5922753  70.3408903  24.6180113  30.5032753  69.7948903
  24.4400113  29.7712753  70.0128903  15.4710113  19.0142753  71.2368903
  15.3310113  19.8092753  70.9058903  14.6850113  18.7712753  71.5258903
  15.3340113  19.0962753  71.2308903  20.3770113  35.8632753  65.3068903
  20.3880113  35.9222753  66.1768903  19.9520113  35.1162753  65.1568903
  20.3160113  35.7612753  65.4128903  18.5350113  21.7582753  58.4618903
  18.6610113  21.4292753  57.6638903  17.7230113  21.5092753  58.6608903
  18.4340113  21.6732753  58.3738903  27.2920113  28.9112753  61.5058903
  27.3680113  29.2522753  62.3048903  27.4610113  28.0642753  61.6268903
  27.3280113  28.8362753  61.6418903  24.8140113  28.1852753  61.0708903
  24.5160113  27.8702753  61.8278903  25.5090113  28.6582753  61.3058903
  24.8730113  28.2082753  61.2178903  25.0360113  32.3032753  69.0978903
  25.7230113  32.1892753  69.6228903  25.1700113  33.0942753  68.7538903
  25.1570113  32.4032753  69.1248903  33.2120113  24.9122753  70.9088903
  32.3570113  24.7902753  71.0348903  33.3650113  24.5172753  70.1458903
  33.1080113  24.8352753  70.8148903  27.7250113  25.5772753  69.4848903
  27.4700113  24.8582753  69.9068903  28.5460113  25.6932753  69.7548903
  27.8090113  25.4882753  69.5868903  17.1410113  35.3612753  70.7488903
  16.4870113  34.7922753  70.8468903  16.7660113  36.1342753  70.8998903
  16.9890113  35.3912753  70.7858903  25.6590113  26.7672753  72.6718903
  25.9820113  27.4532753  72.2398903  24.9550113  27.0902753  73.0738903
  25.6020113  26.9162753  72.6668903  28.7430113  35.1412753  63.6008903
  28.2920113  35.7842753  63.9798903  29.4510113  35.0622753  64.1058903
  28.7810113  35.2242753  63.7318903  25.4440113  30.2312753  66.5308903
  24.7500113  30.6332753  66.8738903  26.1210113  30.6642753  66.8698903
  25.4410113  30.3542753  66.6318903  30.8210113  32.8242753  73.1108903
  31.5970113  32.4342753  73.1938903  30.3520113  32.4882753  73.7658903
  30.8660113  32.7172753  73.2198903  18.5120113  23.7692753  68.8778903
  18.8870113  24.3882753  68.3908903  19.1860113  23.2952753  69.1628903
  18.6670113  23.7912753  68.8478903  16.2870113  22.2172753  68.1528903
  16.3640113  22.0482753  67.2998903  17.0330113  22.6232753  68.3498903
  16.4080113  22.2522753  68.0558903  31.8460113  24.8572753  58.5928903
  31.9490113  24.7992753  57.7288903  32.5870113  24.5252753  58.9108903
  31.9710113  24.8002753  58.5118903  18.8410113  19.6272753  70.5638903
  18.7600113  18.7832753  70.7698903  18.5270113  19.6712753  69.7508903
  18.7830113  19.5092753  70.4738903  25.7660113  31.8222753  59.6998903
  25.5610113  32.6552753  59.5408903  24.9910113  31.4402753  59.8218903
  25.6210113  31.8892753  59.6948903  30.9480113  25.0032753  67.9488903
  30.9460113  24.1402753  68.0728903  31.0150113  25.3272753  68.7558903
  30.9580113  24.9232753  68.0858903  15.6840113  27.4432753  68.3768903
  16.0040113  27.6622753  67.5958903  15.5840113  26.5782753  68.3218903
  15.7160113  27.3482753  68.2538903  17.1400113  23.3792753  54.9948903
  16.4680113  23.3932753  55.5508903  17.2350113  22.5312753  54.8108903
  17.0550113  23.2562753  55.0498903  26.8270113  19.8032753  71.7308903
  26.9190113  20.5152753  72.2248903  26.1900113  19.3582753  72.1278903
  26.7460113  19.8422753  71.8628903  25.8210113  19.9932753  62.5848903
  25.1210113  20.5112753  62.5288903  25.8590113  19.6132753  61.8008903
  25.7230113  20.0142753  62.4608903  21.1280113  32.0842753  56.1088903
  21.5690113  32.1642753  56.8568903  20.3230113  31.8682753  56.3668903
  21.0740113  32.0642753  56.2578903  29.4190113  20.5092753  65.3848903
  30.2740113  20.6082753  65.5298903  29.0500113  21.0622753  65.9498903
  29.4910113  20.6062753  65.4898903  20.4470113  26.7352753  69.7618903
  20.0510113  27.5092753  69.8368903  20.0410113  26.3622753  69.0858903
  20.3290113  26.7942753  69.6728903  18.4570113  31.1542753  56.7098903
  18.2130113  30.8472753  57.4898903  18.4240113  30.4512753  56.1938903
  18.4160113  31.0052753  56.7488903  21.2760113  29.3992753  55.4528903
  20.4580113  29.1312753  55.5928903  21.2480113  30.2512753  55.6378903
  21.1510113  29.4862753  55.5008903  20.8760113  19.7122753  67.2118903
  20.0120113  19.7962753  67.2918903  21.0960113  19.1982753  67.8808903
  20.7810113  19.6492753  67.3228903  32.8940113  18.3472753  68.5408903
  32.8420113  18.3032753  69.4108903  33.5810113  17.8442753  68.3508903
  32.9880113  18.2672753  68.6408903  24.9790113  20.4602753  65.5858903
  24.2420113  20.0062753  65.6988903  25.5500113  20.0582753  66.1088903
  24.9540113  20.3332753  65.6798903  27.7110113  31.3082753  67.3738903
  27.9170113  31.6092753  68.1658903  27.6500113  32.0302753  66.8888903
  27.7320113  31.4592753  67.4188903  27.2450113  35.5222753  71.6198903
  26.4920113  35.5042753  71.1788903  27.4130113  36.3742753  71.7038903
  27.1590113  35.6452753  71.5668903  22.4820113  24.7892753  70.7898903
  22.1600113  24.2132753  70.2198903  22.1230113  25.5442753  70.5438903
  22.3820113  24.8152753  70.6698903  23.2780113  18.0412753  55.4168903
  23.3560113  18.2882753  54.5838903  22.5350113  18.4182753  55.6748903
  23.1800113  18.1332753  55.3318903  20.9170113  35.1452753  71.0378903
  20.9580113  35.2712753  71.9008903  21.5680113  34.5852753  70.8818903
  21.0190113  35.0812753  71.1428903  30.6280113  33.2072753  65.6288903
  31.1550113  33.1242753  64.9378903  30.2370113  32.4292753  65.6828903
  30.6480113  33.0802753  65.5348903  18.0960113  19.7952753  67.8598903
  17.7530113  19.0282753  67.6258903  17.4010113  20.3192753  67.9238903
  17.9430113  19.7592753  67.8348903  27.1420113  18.6512753  64.8368903
  27.8120113  19.1952753  64.9638903  26.6390113  19.0752753  64.2638903
  27.1670113  18.7942753  64.7708903  18.5100113  33.5282753  72.3978903
  19.1050113  33.9592753  72.8698903  18.1460113  34.1522753  71.9088903
  18.5440113  33.6842753  72.3948903  26.5010113  24.4592753  62.3298903
  27.0520113  23.8522753  62.6298903  26.0760113  24.7222753  63.0448903
  26.5200113  24.4082753  62.4788903  16.7490113  23.1092753  61.8158903
  16.3810113  23.4112753  62.5468903  17.2830113  22.4802753  62.0998903
  16.7730113  23.0612753  61.9658903  16.4370113  31.5172753  69.3268903
  15.8630113  31.9332753  69.8358903  17.1700113  31.9822753  69.4218903
  16.4610113  31.6472753  69.4158903  28.4710113  26.2902753  58.8918903
  28.5390113  25.4402753  59.0728903  27.6480113  26.3762753  58.6138903
  28.3590113  26.1772753  58.8778903  18.2230113  34.7842753  58.1018903
  18.0780113  34.9402753  57.2558903  19.0890113  34.8632753  58.1798903
  18.3300113  34.8192753  57.9888903  22.3900113  27.1812753  57.8298903
  22.4900113  27.3202753  56.9748903  23.2080113  27.1212753  58.1258903
  22.5250113  27.1922753  57.7468903  31.7450113  27.6632753  72.0428903
  32.3790113  27.4932753  72.6168903  32.1620113  28.0662753  71.3908903
  31.9000113  27.6982753  72.0318903  27.6250113  31.5102753  57.6318903
  27.3740113  31.3822753  58.4578903  27.3080113  30.8152753  57.2108903
  27.5410113  31.3892753  57.6918903  32.3700113  22.2272753  72.7808903
  32.1740113  22.8712753  73.3358903  31.6480113  21.7372753  72.7728903
  32.2350113  22.2502753  72.8618903  32.2690113  23.1682753  65.7518903
  31.4360113  23.4182753  65.6798903  32.2130113  22.3282753  65.9808903
  32.1380113  23.0812753  65.7748903  21.5290113  20.1562753  70.9458903
  21.7630113  19.5802753  70.3328903  20.6870113  19.9752753  71.0868903
  21.4390113  20.0442753  70.8758903  29.1560113  27.7742753  73.3978903
  30.0270113  27.7382753  73.3618903  28.9370113  28.1942753  72.6658903
  29.2530113  27.8302753  73.2848903  18.9100113  33.5992753  64.5788903
  18.8310113  32.7892753  64.2628903  18.4660113  34.0862753  64.0068903
  18.8330113  33.5512753  64.4478903  24.5110113  29.7182753  57.0618903
  25.2280113  29.3712753  56.7058903  24.4770113  30.5182753  56.7138903
  24.6120113  29.7852753  56.9578903  16.4820113  35.8432753  68.1598903
  16.9750113  35.7872753  68.8778903  16.6700113  35.1102753  67.7248903
  16.5830113  35.7262753  68.2018903  25.9200113  18.3592753  41.3006493
  25.6750113  18.8472753  40.6206493  26.7830113  18.2862753  41.2006493
  26.0110113  18.4202753  41.1856493  25.7290113  25.2752753  45.9716493
  25.2050113  25.8712753  46.3346493  26.1260113  24.9072753  46.6556493
  25.7100113  25.3092753  46.1266493  15.5980113  29.4152753  41.4276493
  15.1570113  29.5332753  42.1706493  15.3150113  28.6402753  41.1426493
  15.4910113  29.3182753  41.4956493  15.3410113  23.2072753  37.9346493
  14.5630113  23.3692753  37.5746493  15.3800113  22.3362753  37.9566493
  15.2320113  23.1022753  37.8846493  18.4800113  28.4702753  36.6066493
  18.0880113  28.0992753  35.9206493  18.4000113  27.8722753  37.2356493
  18.4100113  28.3272753  36.5976493  28.4000113  26.3422753  42.6476493
  28.4800113  26.3462753  41.7786493  27.8160113  25.7102753  42.7966493
  28.3250113  26.2492753  42.5416493  18.1070113  30.1112753  40.5066493
  18.7150113  29.9412753  41.1096493  17.3560113  29.9712753  40.9276493
  18.0860113  30.0652753  40.6576493  22.3890113  19.4462753  40.4556493
  22.3190113  20.1232753  39.9096493  23.1300113  19.0582753  40.2066493
  22.4880113  19.4892753  40.3376493  16.9980113  33.2022753  36.5836493
  17.4650113  33.2862753  35.8516493  17.4530113  32.6242753  37.0526493
  17.1340113  33.1292753  36.5446493  15.5380113  32.1502753  47.6826493
  15.6670113  31.8702753  48.4986493  14.9280113  31.6092753  47.3736493
  15.4670113  32.0292753  47.7576493  22.1120113  29.6752753  52.7496493
  21.8760113  29.6722753  53.5896493  21.3640113  29.5272753  52.3256493
  21.9660113  29.6522753  52.8106493  16.9840113  26.6712753  41.8846493
  16.5220113  26.2792753  41.2576493  17.6840113  26.1582753  41.9766493
  17.0190113  26.5382753  41.8056493  21.4920113  22.2812753  47.2316493
  22.1700113  22.2992753  46.6826493  21.4470113  21.4452753  47.4766493
  21.5850113  22.1602753  47.1866493  22.0940113  32.8672753  50.0126493
  22.2320113  33.6272753  49.6056493  22.8850113  32.5022753  50.0396493
  22.2310113  32.9262753  49.9566493  18.9850113  24.7712753  41.9076493
  19.8020113  24.5842753  42.1506493  18.5080113  24.1572753  42.3036493
  19.0350113  24.6532753  42.0026493  23.1890113  30.7522753  44.5176493
  23.5370113  29.9532753  44.5476493  23.8540113  31.2562753  44.2626493
  23.3390113  30.7082753  44.4846493  23.2460113  30.2012753  40.7286493
  23.5770113  29.5572753  41.2146493  23.4860113  29.9902753  39.9176493
  23.3300113  30.0752753  40.6806493  25.2140113  24.3322753  52.0676493
  24.3660113  24.2332753  51.8896493  25.2430113  25.0772753  52.5216493
  25.0930113  24.4282753  52.1086493  19.5820113  19.8652753  41.1736493
  19.2860113  20.3662753  40.5236493  20.4490113  19.9432753  41.1166493
  19.6660113  19.9512753  41.0696493  29.7720113  17.2922753  51.1816493
  29.6140113  18.0612753  50.7996493  29.0000113  17.0722753  51.5256493
  29.6340113  17.3732753  51.1766493  22.5610113  19.0072753  43.3966493
  22.6340113  19.8672753  43.5256493  22.5230113  18.9322753  42.5286493
  22.5660113  19.1232753  43.2876493  27.2340113  21.9332753  35.6956493
  26.7840113  22.6142753  36.0026493  27.3480113  21.4292753  36.3986493
  27.1850113  21.9592753  35.8446493  15.4400113  24.4322753  44.8976493
  15.1840113  25.2632753  44.8226493  14.7760113  24.0492753  45.3146493
  15.3040113  24.4982753  44.9486493  15.3500113  34.1422753  42.7976493
  14.7580113  34.7002753  42.4846493  15.7760113  33.8732753  42.0856493
  15.3260113  34.1842753  42.6466493  21.1900113  31.9862753  40.2776493
  20.6110113  31.7112753  40.8696493  21.8140113  31.3772753  40.3026493
  21.1970113  31.8562753  40.3686493  18.4690113  19.2492753  45.3886493
  17.9480113  18.6212753  45.0806493  19.0600113  18.8122753  45.8596493
  18.4800113  19.0912753  45.4126493  21.7750113  21.3822753  54.6866493
  21.8920113  20.9282753  53.9506493  22.0630113  22.1802753  54.4836493
  21.8350113  21.4332753  54.5476493  16.8950113  32.8122753  40.7286493
  17.5510113  32.2372753  40.7436493  17.2840113  33.5612753  40.5076493
  17.0500113  32.8372753  40.6986493  32.6280113  21.9062753  41.9906493
  32.2820113  22.5842753  42.4166493  31.9920113  21.3082753  42.0066493
  32.4830113  21.9182753  42.0556493  17.5080113  20.9792753  53.6706493
  16.7300113  20.5892753  53.5986493  17.9990113  20.5672753  53.0796493
  17.4650113  20.8602753  53.5726493  17.7130113  31.2992753  44.2286493
  18.1360113  30.9432753  43.5546493  18.0370113  30.8772753  44.9206493
  17.8230113  31.1842753  44.2316493  20.9440113  34.1512753  43.5246493
  21.7880113  34.2552753  43.3296493  20.6470113  34.9692753  43.5926493
  21.0250113  34.2872753  43.5056493  24.1570113  18.6222753  52.8386493
  24.3350113  17.8132753  52.5636493  24.0140113  19.0632753  52.0996493
  24.1620113  18.5682753  52.6886493  24.7510113  23.5482753  41.6116493
  25.0380113  23.3162753  40.8216493  25.4830113  23.6272753  42.0806493
  24.9010113  23.5252753  41.5646493  25.4730113  23.8872753  36.7326493
  25.7540113  24.6752753  36.9816493  24.6970113  24.0522753  36.3696493
  25.4000113  24.0282753  36.7156493  19.9420113  35.3702753  49.2646493
  20.2340113  35.3032753  50.0846493  19.3160113  34.7652753  49.2196493
  19.8930113  35.2712753  49.3796493  32.3030113  20.2292753  47.3596493
  33.0600113  20.3012753  46.9316493  32.3660113  19.4562753  47.7586493
  32.4240113  20.1262753  47.3546493  14.8560113  21.5272753  51.2566493
  14.8520113  22.1142753  51.9026493  15.4500113  21.8392753  50.6996493
  14.9430113  21.6602753  51.2696493  27.1940113  31.8612753  51.7986493
  27.1600113  32.2432753  52.5826493  28.0480113  31.8192753  51.6276493
  27.3150113  31.9112753  51.8896493  24.3320113  32.0582753  36.5486493
  24.1510113  32.6032753  37.2056493  25.0980113  32.3482753  36.2476493
  24.4180113  32.1822753  36.6016493  27.8390113  19.9542753  37.6026493
  28.3790113  19.2722753  37.6786493  27.9010113  20.3522753  38.3766493
  27.9280113  19.9122753  37.7286493  15.7930113  21.1222753  40.1716493
  15.6790113  20.2582753  40.2026493  15.3180113  21.4162753  40.8416493
  15.7060113  21.0382753  40.2746493  17.9350113  33.5322753  48.3866493
  17.2370113  33.0242753  48.5126493  18.1950113  33.3272753  47.5786493
  17.8700113  33.4272753  48.2856493  25.0970113  19.2712753  38.8076493
  24.6420113  18.8692753  38.1816493  25.8700113  19.4262753  38.4326493
  25.1440113  19.2352753  38.6596493  23.6950113  21.6382753  43.3296493
  23.7690113  22.2062753  42.6716493  23.8160113  22.1302753  44.0396493
  23.7230113  21.7952753  43.3376493  28.9200113  31.4732753  41.7416493
  29.6210113  30.9912753  41.9306493  28.2600113  30.9042753  41.7866493
  28.9260113  31.3182753  41.7756493  19.2960113  32.3832753  50.9536493
  20.1370113  32.4462753  50.7316493  19.2590113  32.7802753  51.7296493
  19.4150113  32.4512753  51.0356493  18.3030113  17.4612753  41.6776493
  18.8390113  18.1492753  41.6676493  18.3060113  17.1872753  40.8496493
  18.3820113  17.5222753  41.5536493  21.2590113  27.8942753  45.7026493
  21.4310113  27.6842753  46.5316493  20.6040113  27.3602753  45.4866493
  21.1880113  27.7842753  45.7936493  27.4870113  21.8082753  49.2176493
  27.3920113  22.1272753  50.0236493  26.8940113  21.1692753  49.1796493
  27.3850113  21.7602753  49.3316493  22.0090113  27.8322753  48.2926493
  22.0620113  28.6792753  48.4946493  21.7240113  27.4622753  49.0296493
  21.9750113  27.9022753  48.4306493  28.1860113  28.5272753  47.4226493
  27.6720113  28.1152753  47.9936493  28.0600113  29.3712753  47.6036493
  28.0920113  28.5912753  47.5336493  28.7430113  17.7522753  42.0536493
  28.7920113  17.4342753  42.8646493  29.0660113  17.1082753  41.5606493
  28.7980113  17.6102753  42.1006493  14.8300113  32.2032753  54.5036493
  15.5860113  32.5522753  54.7616493  15.0070113  31.3502753  54.4466493
  14.9680113  32.1282753  54.5336493  31.2070113  21.9882753  50.3616493
  31.9790113  21.7632753  50.6986493  30.7320113  22.2052753  51.0616493
  31.2510113  21.9872753  50.5146493  18.7510113  21.2712753  43.3316493
  19.0230113  20.8412753  42.6236493  18.5750113  20.6352753  43.9026493
  18.7650113  21.1142753  43.3116493  18.5750113  28.6982753  42.8806493
  19.4260113  28.6182753  42.7076493  18.2180113  28.0162753  42.4686493
  18.6480113  28.5852753  42.7936493  17.3420113  35.4232753  44.1176493
  16.6690113  34.9252753  43.8726493  17.7450113  35.6082753  43.3666493
  17.3020113  35.3772753  43.9706493  16.8920113  22.3732753  46.4136493
  17.7350113  22.5932753  46.3706493  16.5030113  22.9462753  45.8826493
  16.9590113  22.4902753  46.3286493  20.9430113  28.7052753  41.1156493
  21.6560113  29.2002753  41.2056493  21.1650113  28.1382753  40.4896493
  21.0810113  28.6942753  41.0366493  33.5210113  20.3642753  36.5876493
  32.8590113  19.7962753  36.6106493  33.3280113  20.8762753  35.9076493
  33.3950113  20.3562753  36.4906493  15.0990113  30.3482753  44.4356493
  14.4320113  30.8362753  44.7116493  15.7790113  30.8932753  44.4646493
  15.1010113  30.5002753  44.4806493  22.7460113  24.0582753  54.5316493
  22.2620113  24.6352753  54.9736493  22.7180113  24.3532753  53.7106493
  22.6700113  24.1872753  54.4756493  33.8440113  24.7422753  49.1436493
  34.0590113  23.9422753  48.8676493  32.9940113  24.8022753  48.9546493
  33.7500113  24.6332753  49.0746493  15.1650113  27.0322753  39.5386493
  14.9800113  26.1932753  39.6906493  15.8240113  26.9962753  38.9686493
  15.2350113  26.9032753  39.4766493  31.5230113  19.9222753  38.8666493
  32.2690113  19.5152753  39.0656493  31.7860113  20.6372753  38.4416493
  31.6720113  19.9682753  38.8336493  25.4660113  32.4082753  43.4426493
  24.9430113  33.0422753  43.1496493  25.7760113  32.0442753  42.7136493
  25.4340113  32.4482753  43.2916493  15.3370113  31.1962753  39.1136493
  15.8890113  31.7652753  39.4776493  15.1050113  30.6812753  39.7786493
  15.3840113  31.2042753  39.2656493  19.5410113  30.1962753  46.2026493
  20.0080113  30.4852753  46.8806493  20.1130113  29.7182753  45.7486493
  19.6950113  30.1682753  46.2356493  27.9770113  22.2102753  43.9396493
  28.3210113  22.3622753  44.7266493  27.5240113  21.4722753  44.0526493
  27.9610113  22.1232753  44.0726493  15.1670113  29.6452753  36.7416493
  15.9230113  29.2132753  36.7996493  15.1820113  30.1772753  37.4326493
  15.2810113  29.6602753  36.8526493  16.1070113  27.8662753  44.7466493
  16.5380113  27.7372753  43.9996493  15.9020113  28.7142753  44.7206493
  16.1400113  27.9722753  44.6326493  22.4530113  21.4302753  38.3966493
  22.4510113  21.3132753  37.5316493  22.2720113  22.2782753  38.4886493
  22.4260113  21.5382753  38.2826493  20.1910113  31.3822753  43.0286493
  20.3170113  32.2252753  43.2156493  20.8590113  30.9832753  43.4246493
  20.3090113  31.4482753  43.1146493  18.3210113  24.8652753  52.8906493
  17.7850113  24.3592753  53.3586493  18.3410113  24.4752753  52.1106493
  18.2440113  24.7322753  52.8446493  18.8060113  24.2622753  38.0306493
  18.6780113  23.8142753  38.7686493  18.2240113  23.9202753  37.4786493
  18.7010113  24.1452753  38.0586493  18.9730113  26.0922753  44.6296493
  18.1920113  26.0332753  44.2466493  19.0450113  25.3402753  45.0666493
  18.8680113  25.9732753  44.6376493  19.4030113  25.8292753  48.0976493
  19.4280113  25.1542753  47.5466493  18.7570113  26.3252753  47.7856493
  19.3120113  25.8022753  47.9706493  29.2980113  23.5422753  46.4936493
  28.6360113  23.8702753  46.9566493  29.4850113  24.1762753  45.9246493
  29.2280113  23.6842753  46.4776493  25.9430113  19.4482753  49.9226493
  26.0920113  18.6232753  49.6796493  26.3220113  19.5032753  50.7066493
  26.0210113  19.3342753  50.0026493  27.4910113  21.5112753  40.0046493
  27.9810113  22.2282753  39.9276493  26.7010113  21.7722753  39.7416493
  27.4470113  21.6552753  39.9546493  17.2020113  27.1842753  53.6566493
  17.1650113  27.6852753  52.9426493  17.5330113  26.4322753  53.3616493
  17.2450113  27.1462753  53.5076493  28.8050113  29.3892753  51.9146493
  29.2890113  30.1072753  52.0126493  29.1990113  28.9622753  51.2636493
  28.9350113  29.4322753  51.8326493  23.1010113  32.2342753  53.0916493
  23.4550113  32.0562753  53.8686493  22.6650113  31.5052753  52.8926493
  23.0890113  32.1002753  53.1776493  24.0730113  22.9812753  45.7296493
  24.5530113  23.6802753  45.9376493  24.4460113  22.3342753  46.1806493
  24.1990113  22.9892753  45.8266493  27.2920113  29.9372753  45.2286493
  26.4950113  30.1612753  45.5026493  27.5500113  29.3432753  45.8136493
  27.2120113  29.8822753  45.3556493  21.1840113  34.7492753  39.6766493
  21.0370113  33.9732753  40.0476493  21.8730113  34.6022753  39.1616493
  21.2640113  34.6122753  39.6556493  20.8550113  18.4922753  37.6646493
  20.9520113  18.3852753  38.5256493  20.1470113  18.9982753  37.5996493
  20.7650113  18.5512753  37.7826493  23.4760113  34.2652753  38.0786493
  24.0980113  34.4282753  38.6686493  23.5120113  34.9562753  37.5466493
  23.5730113  34.3912753  38.0876493  30.5520113  27.9352753  50.0746493
  30.6070113  28.0602753  49.2126493  31.3050113  28.2552753  50.3766493
  30.6710113  28.0002753  49.9916493  26.7430113  33.2842753  54.3516493
  26.9070113  33.5672753  55.1606493  27.0060113  33.9452753  53.8466493
  26.8060113  33.4242753  54.3966493  31.5840113  18.2332753  53.0616493
  30.9470113  17.8332753  52.6196493  31.6100113  17.8022753  53.8196493
  31.4940113  18.1112753  53.1076493  17.9770113  26.7992753  38.9076493
  18.3010113  26.0202753  38.6856493  18.6230113  27.1672753  39.3626493
  18.1200113  26.7382753  38.9416493  26.2830113  27.7412753  49.6746493
  26.1280113  28.3512753  50.2786493  26.8170113  27.1832753  50.0806493
  26.3390113  27.7492753  49.8236493  14.9740113  18.4602753  39.8756493
  15.1030113  17.7522753  39.3836493  14.6070113  18.1422753  40.6006493
  14.9390113  18.3082753  39.9106493  24.6670113  26.1412753  40.3326493
  24.7260113  26.7912753  40.9116493  24.4780113  25.4452753  40.8236493
  24.6480113  26.1342753  40.4906493  29.8930113  30.4702753  46.2016493
  29.4140113  30.7682753  45.5356493  29.5370113  29.6942753  46.3796493
  29.7700113  30.3992753  46.1296493  19.1630113  20.6582753  36.8446493
  18.6520113  20.7112753  36.1386493  19.9470113  20.8982753  36.5486493
  19.2030113  20.7012753  36.6966493  23.8900113  28.1882753  44.7636493
  23.0430113  27.9942753  44.8446493  24.2140113  28.0232753  45.5566493
  23.8120113  28.1352753  44.8926493  20.6420113  34.9182753  35.6496493
  21.0810113  34.2212753  35.9376493  20.8490113  35.5422753  36.2226493
  20.7380113  34.9072753  35.7766493  17.7380113  27.8812753  47.0796493
  18.4600113  28.3692753  47.0426493  17.4680113  27.8512753  46.2506493
  17.8050113  27.9492753  46.9516493  20.9680113  23.0522753  43.8146493
  21.8140113  22.8622753  43.9126493  20.5980113  22.2752753  43.6766493
  21.0380113  22.9092753  43.8086493  15.7890113  24.3902753  40.4696493
  16.2780113  24.0982753  41.1306493  15.9180113  23.7972753  39.8426493
  15.8800113  24.2592753  40.4746493  20.3140113  25.8242753  35.9556493
  19.7040113  25.4192753  36.4296493  19.9280113  25.9422753  35.1826493
  20.1670113  25.7812753  35.9116493  17.1330113  28.9332753  51.3576493
  16.7120113  28.4152753  50.7966493  16.7810113  29.7192753  51.2146493
  17.0190113  28.9732753  51.2536493  32.0800113  27.4832753  44.7576493
  31.7940113  27.8842753  45.4776493  32.9400113  27.4212753  44.8846493
  32.1650113  27.5332753  44.8826493  21.7690113  24.2852753  38.6656493
  22.0410113  25.1112753  38.7326493  20.9060113  24.3602753  38.5696493
  21.6820113  24.4182753  38.6606493  29.7420113  21.4072753  53.2976493
  29.2170113  21.8662753  53.8216493  29.3810113  20.6122753  53.2916493
  29.6110113  21.3572753  53.3736493  15.2490113  20.2552753  45.2016493
  15.2930113  20.5992753  44.4006493  16.0040113  20.4922753  45.5686493
  15.3670113  20.3412753  45.1376493  33.2110113  33.1162753  45.2866493
  33.5010113  33.3732753  44.5056493  33.9060113  33.2122753  45.8056493
  33.3570113  33.1682753  45.2476493  28.2340113  24.9762753  53.3736493
  28.3070113  25.0802753  54.2366493  27.6000113  25.5342753  53.1526493
  28.1510113  25.0742753  53.4686493  30.5020113  25.2952753  51.7386493
  30.8210113  26.0812753  51.9416493  30.1320113  25.0252753  52.4816493
  30.4950113  25.3712753  51.8786493  30.2980113  23.5532753  42.9276493
  29.5530113  23.2302753  43.2456493  30.3000113  24.3792753  43.2076493
  30.1880113  23.6272753  43.0156493  33.2000113  25.8372753  54.4736493
  33.1480113  25.4962753  53.6726493  33.9370113  26.3042753  54.4516493
  33.3010113  25.8562753  54.3516493  21.8720113  30.7442753  47.9756493
  21.5740113  31.3362753  48.5426493  21.9270113  31.1862753  47.2266493
  21.8360113  30.8972753  47.9486493  19.8510113  29.6942753  51.3736493
  19.0450113  29.4042753  51.5406493  19.7620113  30.5622753  51.3796493
  19.7190113  29.7792753  51.3986493  29.2100113  19.8832753  50.3886493
  29.9540113  20.3352753  50.3256493  28.6440113  20.3532753  49.9196493
  29.2370113  20.0202753  50.3106493  24.3880113  27.1672753  47.4666493
  24.8640113  27.5412753  48.0946493  23.5650113  27.3012753  47.7256493
  24.3370113  27.2422753  47.5976493  21.0980113  22.7702753  50.2076493
  21.2590113  22.0262753  50.6346493  21.0530113  22.5212753  49.3726493
  21.1150113  22.6232753  50.1476493  23.6520113  34.5602753  42.6946493
  24.1980113  35.2392753  42.7486493  23.3020113  34.6422753  41.8996493
  23.6810113  34.6732753  42.5846493  30.4950113  17.8632753  48.0586493
  30.2150113  18.6882753  48.0146493  31.2110113  17.9162753  48.5546493
  30.5600113  17.9932753  48.1256493  22.8500113  18.5782753  50.0876493
  23.5550113  18.8982753  49.6856493  23.0910113  17.7712753  50.3146493
  22.9890113  18.5062753  50.0616493  21.8350113  32.7882753  46.0836493
  21.2110113  33.3702753  45.9016493  22.0830113  32.5022753  45.2976493
  21.7790113  32.8322753  45.9406493  26.1440113  29.4222753  53.0726493
  26.9010113  29.7082753  52.7466493  25.5970113  29.4742753  52.3946493
  26.1750113  29.4722753  52.9236493  23.4290113  27.5642753  35.9986493
  22.6240113  27.3872753  35.7136493  23.3960113  28.4152753  36.1906493
  23.3050113  27.6632753  35.9856493  19.3590113  23.6312753  46.1486493
  19.7990113  23.5282753  45.4026493  19.9040113  23.3182753  46.7536493
  19.5040113  23.5702753  46.1276493  27.3750113  22.7332753  51.7406493
  26.7270113  23.2032753  52.0886493  27.9400113  22.6442753  52.3996493
  27.3630113  22.7892753  51.8896493  27.0630113  24.2702753  48.0386493
  27.3650113  24.6902753  48.7416493  27.0990113  23.4302753  48.2706493
  27.1130113  24.2082753  48.1766493  24.4880113  34.4372753  51.9636493
  24.9660113  33.8372753  51.5476493  24.1370113  33.9942753  52.6286493
  24.5070113  34.2832753  52.0006493  29.6110113  23.7172753  40.2906493
  29.8180113  23.5162753  41.1146493  30.3670113  23.9852753  39.9486493
  29.7530113  23.7272753  40.3616493  22.9060113  18.6162753  46.1956493
  22.0800113  18.4672753  46.4326493  22.8660113  18.6512753  45.3246493
  22.7780113  18.5992753  46.1016493  30.6330113  19.8002753  41.7646493
  29.9190113  19.3292753  41.9356493  30.4710113  20.1412753  40.9786493
  30.5040113  19.7812753  41.6736493  24.5470113  29.6562753  50.9836493
  23.7520113  29.5922753  51.3346493  24.6180113  30.5032753  50.7886493
  24.4400113  29.7712753  51.0066493  15.4710113  19.0142753  52.2306493
  15.3310113  19.8092753  51.8996493  14.6850113  18.7712753  52.5196493
  15.3340113  19.0962753  52.2246493  20.3770113  35.8632753  46.3006493
  20.3880113  35.9222753  47.1706493  19.9520113  35.1162753  46.1506493
  20.3160113  35.7612753  46.4066493  18.5350113  21.7582753  39.4556493
  18.6610113  21.4292753  38.6576493  17.7230113  21.5092753  39.6546493
  18.4340113  21.6732753  39.3676493  27.2920113  28.9112753  42.4996493
  27.3680113  29.2522753  43.2986493  27.4610113  28.0642753  42.6206493
  27.3280113  28.8362753  42.6356493  24.8140113  28.1852753  42.0646493
  24.5160113  27.8702753  42.8216493  25.5090113  28.6582753  42.2996493
  24.8730113  28.2082753  42.2116493  25.0360113  32.3032753  50.0916493
  25.7230113  32.1892753  50.6166493  25.1700113  33.0942753  49.7476493
  25.1570113  32.4032753  50.1186493  33.2120113  24.9122753  51.9026493
  32.3570113  24.7902753  52.0286493  33.3650113  24.5172753  51.1396493
  33.1080113  24.8352753  51.8086493  27.7250113  25.5772753  50.4786493
  27.4700113  24.8582753  50.9006493  28.5460113  25.6932753  50.7486493
  27.8090113  25.4882753  50.5806493  17.1410113  35.3612753  51.7426493
  16.4870113  34.7922753  51.8406493  16.7660113  36.1342753  51.8936493
  16.9890113  35.3912753  51.7796493  25.6590113  26.7672753  53.6656493
  25.9820113  27.4532753  53.2336493  24.9550113  27.0902753  54.0676493
  25.6020113  26.9162753  53.6606493  25.4440113  30.2312753  47.5246493
  24.7500113  30.6332753  47.8676493  26.1210113  30.6642753  47.8636493
  25.4410113  30.3542753  47.6256493  18.5120113  23.7692753  49.8716493
  18.8870113  24.3882753  49.3846493  19.1860113  23.2952753  50.1566493
  18.6670113  23.7912753  49.8416493  16.2870113  22.2172753  49.1466493
  16.3640113  22.0482753  48.2936493  17.0330113  22.6232753  49.3436493
  16.4080113  22.2522753  49.0496493  31.8460113  24.8572753  39.5866493
  31.9490113  24.7992753  38.7226493  32.5870113  24.5252753  39.9046493
  31.9710113  24.8002753  39.5056493  18.8410113  19.6272753  51.5576493
  18.7600113  18.7832753  51.7636493  18.5270113  19.6712753  50.7446493
  18.7830113  19.5092753  51.4676493  30.9480113  25.0032753  48.9426493
  30.9460113  24.1402753  49.0666493  31.0150113  25.3272753  49.7496493
  30.9580113  24.9232753  49.0796493  15.6840113  27.4432753  49.3706493
  16.0040113  27.6622753  48.5896493  15.5840113  26.5782753  49.3156493
  15.7160113  27.3482753  49.2476493  17.1400113  23.3792753  35.9886493
  16.4680113  23.3932753  36.5446493  17.2350113  22.5312753  35.8046493
  17.0550113  23.2562753  36.0436493  26.8270113  19.8032753  52.7246493
  26.9190113  20.5152753  53.2186493  26.1900113  19.3582753  53.1216493
  26.7460113  19.8422753  52.8566493  25.8210113  19.9932753  43.5786493
  25.1210113  20.5112753  43.5226493  25.8590113  19.6132753  42.7946493
  25.7230113  20.0142753  43.4546493  21.1280113  32.0842753  37.1026493
  21.5690113  32.1642753  37.8506493  20.3230113  31.8682753  37.3606493
  21.0740113  32.0642753  37.2516493  29.4190113  20.5092753  46.3786493
  30.2740113  20.6082753  46.5236493  29.0500113  21.0622753  46.9436493
  29.4910113  20.6062753  46.4836493  20.4470113  26.7352753  50.7556493
  20.0510113  27.5092753  50.8306493  20.0410113  26.3622753  50.0796493
  20.3290113  26.7942753  50.6666493  29.7230113  25.7892753  44.8696493
  30.3890113  26.3302753  45.0296493  29.3780113  26.1002753  44.1306493
  29.7700113  25.9152753  44.7846493  18.4570113  31.1542753  37.7036493
  18.2130113  30.8472753  38.4836493  18.4240113  30.4512753  37.1876493
  18.4160113  31.0052753  37.7426493  21.2760113  29.3992753  36.4466493
  20.4580113  29.1312753  36.5866493  21.2480113  30.2512753  36.6316493
  21.1510113  29.4862753  36.4946493  20.8760113  19.7122753  48.2056493
  20.0120113  19.7962753  48.2856493  21.0960113  19.1982753  48.8746493
  20.7810113  19.6492753  48.3166493  32.8940113  18.3472753  49.5346493
  32.8420113  18.3032753  50.4046493  33.5810113  17.8442753  49.3446493
  32.9880113  18.2672753  49.6346493  24.9790113  20.4602753  46.5796493
  24.2420113  20.0062753  46.6926493  25.5500113  20.0582753  47.1026493
  24.9540113  20.3332753  46.6736493  27.7110113  31.3082753  48.3676493
  27.9170113  31.6092753  49.1596493  27.6500113  32.0302753  47.8826493
  27.7320113  31.4592753  48.4126493  27.2450113  35.5222753  52.6136493
  26.4920113  35.5042753  52.1726493  27.4130113  36.3742753  52.6976493
  27.1590113  35.6452753  52.5606493  22.4820113  24.7892753  51.7836493
  22.1600113  24.2132753  51.2136493  22.1230113  25.5442753  51.5376493
  22.3820113  24.8152753  51.6636493  23.2780113  18.0412753  36.4106493
  23.3560113  18.2882753  35.5776493  22.5350113  18.4182753  36.6686493
  23.1800113  18.1332753  36.3256493  32.5230113  29.9472753  47.8256493
  32.4910113  29.0852753  47.6906493  31.8300113  30.2492753  47.3916493
  32.4160113  29.8642753  47.7416493  20.9170113  35.1452753  52.0316493
  20.9580113  35.2712753  52.8946493  21.5680113  34.5852753  51.8756493
  21.0190113  35.0812753  52.1366493  18.0960113  19.7952753  48.8536493
  17.7530113  19.0282753  48.6196493  17.4010113  20.3192753  48.9176493
  17.9430113  19.7592753  48.8286493  27.1420113  18.6512753  45.8306493
  27.8120113  19.1952753  45.9576493  26.6390113  19.0752753  45.2576493
  27.1670113  18.7942753  45.7646493  18.5100113  33.5282753  53.3916493
  19.1050113  33.9592753  53.8636493  18.1460113  34.1522753  52.9026493
  18.5440113  33.6842753  53.3886493  26.5010113  24.4592753  43.3236493
  27.0520113  23.8522753  43.6236493  26.0760113  24.7222753  44.0386493
  26.5200113  24.4082753  43.4726493  16.7490113  23.1092753  42.8096493
  16.3810113  23.4112753  43.5406493  17.2830113  22.4802753  43.0936493
  16.7730113  23.0612753  42.9596493  16.4370113  31.5172753  50.3206493
  15.8630113  31.9332753  50.8296493  17.1700113  31.9822753  50.4156493
  16.4610113  31.6472753  50.4096493  18.2230113  34.7842753  39.0956493
  18.0780113  34.9402753  38.2496493  19.0890113  34.8632753  39.1736493
  18.3300113  34.8192753  38.9826493  22.3900113  27.1812753  38.8236493
  22.4900113  27.3202753  37.9686493  23.2080113  27.1212753  39.1196493
  22.5250113  27.1922753  38.7406493  32.3700113  22.2272753  53.7746493
  32.1740113  22.8712753  54.3296493  31.6480113  21.7372753  53.7666493
  32.2350113  22.2502753  53.8556493  32.2690113  23.1682753  46.7456493
  31.4360113  23.4182753  46.6736493  32.2130113  22.3282753  46.9746493
  32.1380113  23.0812753  46.7686493  21.5290113  20.1562753  51.9396493
  21.7630113  19.5802753  51.3266493  20.6870113  19.9752753  52.0806493
  21.4390113  20.0442753  51.8696493  29.1560113  27.7742753  54.3916493
  30.0270113  27.7382753  54.3556493  28.9370113  28.1942753  53.6596493
  29.2530113  27.8302753  54.2786493  18.9100113  33.5992753  45.5726493
  18.8310113  32.7892753  45.2566493  18.4660113  34.0862753  45.0006493
  18.8330113  33.5512753  45.4416493  24.5110113  29.7182753  38.0556493
  25.2280113  29.3712753  37.6996493  24.4770113  30.5182753  37.7076493
  24.6120113  29.7852753  37.9516493  16.4820113  35.8432753  49.1536493
  16.9750113  35.7872753  49.8716493  16.6700113  35.1102753  48.7186493
  16.5830113  35.7262753  49.1956493  25.9200113  18.3592753  22.2944083
  25.6750113  18.8472753  21.6144083  26.7830113  18.2862753  22.1944083
  26.0110113  18.4202753  22.1794083  15.5980113  29.4152753  22.4214083
  15.1570113  29.5332753  23.1644083  15.3150113  28.6402753  22.1364083
  15.4910113  29.3182753  22.4894083  31.8730113  32.7162753  19.9364083
  32.5740113  32.1972753  19.9324083  31.2860113  32.2712753  19.4674083
  31.8900113  32.5732753  19.8664083  18.4800113  28.4702753  17.6004083
  18.0880113  28.0992753  16.9144083  18.4000113  27.8722753  18.2294083
  18.4100113  28.3272753  17.5914083  18.1070113  30.1112753  21.5004083
  18.7150113  29.9412753  22.1034083  17.3560113  29.9712753  21.9214083
  18.0860113  30.0652753  21.6514083  22.3890113  19.4462753  21.4494083
  22.3190113  20.1232753  20.9034083  23.1300113  19.0582753  21.2004083
  22.4880113  19.4892753  21.3314083  16.9980113  33.2022753  17.5774083
  17.4650113  33.2862753  16.8454083  17.4530113  32.6242753  18.0464083
  17.1340113  33.1292753  17.5384083  15.5380113  32.1502753  28.6764083
  15.6670113  31.8702753  29.4924083  14.9280113  31.6092753  28.3674083
  15.4670113  32.0292753  28.7514083  22.1120113  29.6752753  33.7434083
  21.8760113  29.6722753  34.5834083  21.3640113  29.5272753  33.3194083
  21.9660113  29.6522753  33.8044083  16.9840113  26.6712753  22.8784083
  16.5220113  26.2792753  22.2514083  17.6840113  26.1582753  22.9704083
  17.0190113  26.5382753  22.7994083  21.4920113  22.2812753  28.2254083
  22.1700113  22.2992753  27.6764083  21.4470113  21.4452753  28.4704083
  21.5850113  22.1602753  28.1804083  22.0940113  32.8672753  31.0064083
  22.2320113  33.6272753  30.5994083  22.8850113  32.5022753  31.0334083
  22.2310113  32.9262753  30.9504083  18.9850113  24.7712753  22.9014083
  19.8020113  24.5842753  23.1444083  18.5080113  24.1572753  23.2974083
  19.0350113  24.6532753  22.9964083  23.1890113  30.7522753  25.5114083
  23.5370113  29.9532753  25.5414083  23.8540113  31.2562753  25.2564083
  23.3390113  30.7082753  25.4784083  23.2460113  30.2012753  21.7224083
  23.5770113  29.5572753  22.2084083  23.4860113  29.9902753  20.9114083
  23.3300113  30.0752753  21.6744083  19.5820113  19.8652753  22.1674083
  19.2860113  20.3662753  21.5174083  20.4490113  19.9432753  22.1104083
  19.6660113  19.9512753  22.0634083  29.7720113  17.2922753  32.1754083
  29.6140113  18.0612753  31.7934083  29.0000113  17.0722753  32.5194083
  29.6340113  17.3732753  32.1704083  22.5610113  19.0072753  24.3904083
  22.6340113  19.8672753  24.5194083  22.5230113  18.9322753  23.5224083
  22.5660113  19.1232753  24.2814083  27.2340113  21.9332753  16.6894083
  26.7840113  22.6142753  16.9964083  27.3480113  21.4292753  17.3924083
  27.1850113  21.9592753  16.8384083  15.4400113  24.4322753  25.8914083
  15.1840113  25.2632753  25.8164083  14.7760113  24.0492753  26.3084083
  15.3040113  24.4982753  25.9424083  15.3500113  34.1422753  23.7914083
  14.7580113  34.7002753  23.4784083  15.7760113  33.8732753  23.0794083
  15.3260113  34.1842753  23.6404083  21.1900113  31.9862753  21.2714083
  20.6110113  31.7112753  21.8634083  21.8140113  31.3772753  21.2964083
  21.1970113  31.8562753  21.3624083  27.3330113  34.2742753  18.7934083
  28.0600113  34.7462753  18.8954083  27.5620113  33.4802753  19.0734083
  27.4750113  34.2272753  18.8504083  25.5010113  34.6662753  20.7834083
  25.7150113  35.1932753  21.4454083  26.2680113  34.4922753  20.4044083
  25.6460113  34.7182753  20.8254083  21.7750113  21.3822753  35.6804083
  21.8920113  20.9282753  34.9444083  22.0630113  22.1802753  35.4774083
  21.8350113  21.4332753  35.5414083  16.8950113  32.8122753  21.7224083
  17.5510113  32.2372753  21.7374083  17.2840113  33.5612753  21.5014083
  17.0500113  32.8372753  21.6924083  32.6280113  21.9062753  22.9844083
  32.2820113  22.5842753  23.4104083  31.9920113  21.3082753  23.0004083
  32.4830113  21.9182753  23.0494083  27.9400113  34.6762753  29.0884083
  28.6840113  35.1322753  29.0784083  27.8190113  34.4622753  28.2514083
  28.0320113  34.7122753  28.9634083  17.5080113  20.9792753  34.6644083
  16.7300113  20.5892753  34.5924083  17.9990113  20.5672753  34.0734083
  17.4650113  20.8602753  34.5664083  17.7130113  31.2992753  25.2224083
  18.1360113  30.9432753  24.5484083  18.0370113  30.8772753  25.9144083
  17.8230113  31.1842753  25.2254083  20.9440113  34.1512753  24.5184083
  21.7880113  34.2552753  24.3234083  20.6470113  34.9692753  24.5864083
  21.0250113  34.2872753  24.4994083  24.1570113  18.6222753  33.8324083
  24.3350113  17.8132753  33.5574083  24.0140113  19.0632753  33.0934083
  24.1620113  18.5682753  33.6824083  24.7510113  23.5482753  22.6054083
  25.0380113  23.3162753  21.8154083  25.4830113  23.6272753  23.0744083
  24.9010113  23.5252753  22.5584083  25.4730113  23.8872753  17.7264083
  25.7540113  24.6752753  17.9754083  24.6970113  24.0522753  17.3634083
  25.4000113  24.0282753  17.7094083  29.5140113  35.8612753  19.1934083
  30.1790113  35.7132753  18.6484083  29.8740113  35.7782753  19.9834083
  29.6660113  35.8272753  19.2294083  19.9420113  35.3702753  30.2584083
  20.2340113  35.3032753  31.0784083  19.3160113  34.7652753  30.2134083
  19.8930113  35.2712753  30.3734083  32.3030113  20.2292753  28.3534083
  33.0600113  20.3012753  27.9254083  32.3660113  19.4562753  28.7524083
  32.4240113  20.1262753  28.3484083  14.8560113  21.5272753  32.2504083
  14.8520113  22.1142753  32.8964083  15.4500113  21.8392753  31.6934083
  14.9430113  21.6602753  32.2634083  27.8390113  19.9542753  18.5964083
  28.3790113  19.2722753  18.6724083  27.9010113  20.3522753  19.3704083
  27.9280113  19.9122753  18.7224083  15.7930113  21.1222753  21.1654083
  15.6790113  20.2582753  21.1964083  15.3180113  21.4162753  21.8354083
  15.7060113  21.0382753  21.2684083  17.9350113  33.5322753  29.3804083
  17.2370113  33.0242753  29.5064083  18.1950113  33.3272753  28.5724083
  17.8700113  33.4272753  29.2794083  25.0970113  22.3302753  19.9104083
  24.5890113  21.6682753  19.6564083  25.1490113  22.8342753  19.2004083
  25.0300113  22.3072753  19.7684083  25.6460113  35.0252753  30.2904083
  26.4140113  34.9452753  29.8844083  25.0630113  34.9042753  29.6524083
  25.6730113  34.9952753  30.1364083  31.9230113  35.6282753  23.1914083
  31.4680113  36.3452753  23.3924083  31.3090113  35.0572753  22.9494083
  31.7650113  35.6502753  23.1854083  23.6950113  21.6382753  24.3234083
  23.7690113  22.2062753  23.6654083  23.8160113  22.1302753  25.0334083
  23.7230113  21.7952753  24.3314083  28.9200113  31.4732753  22.7354083
  29.6210113  30.9912753  22.9244083  28.2600113  30.9042753  22.7804083
  28.9260113  31.3182753  22.7694083  19.2960113  32.3832753  31.9474083
  20.1370113  32.4462753  31.7254083  19.2590113  32.7802753  32.7234083
  19.4150113  32.4512753  32.0294083  18.3030113  17.4612753  22.6714083
  18.8390113  18.1492753  22.6614083  18.3060113  17.1872753  21.8434083
  18.3820113  17.5222753  22.5474083  21.2590113  27.8942753  26.6964083
  21.4310113  27.6842753  27.5254083  20.6040113  27.3602753  26.4804083
  21.1880113  27.7842753  26.7874083  22.0090113  27.8322753  29.2864083
  22.0620113  28.6792753  29.4884083  21.7240113  27.4622753  30.0234083
  21.9750113  27.9022753  29.4244083  28.7430113  17.7522753  23.0474083
  28.7920113  17.4342753  23.8584083  29.0660113  17.1082753  22.5544083
  28.7980113  17.6102753  23.0944083  14.8300113  32.2032753  35.4974083
  15.5860113  32.5522753  35.7554083  15.0070113  31.3502753  35.4404083
  14.9680113  32.1282753  35.5274083  31.2070113  21.9882753  31.3554083
  31.9790113  21.7632753  31.6924083  30.7320113  22.2052753  32.0554083
  31.2510113  21.9872753  31.5084083  18.7510113  21.2712753  24.3254083
  19.0230113  20.8412753  23.6174083  18.5750113  20.6352753  24.8964083
  18.7650113  21.1142753  24.3054083  31.4390113  28.9662753  18.5434083
  31.5580113  28.6792753  19.3584083  32.2460113  28.9872753  18.2134083
  31.5750113  28.9272753  18.6154083  18.5750113  28.6982753  23.8744083
  19.4260113  28.6182753  23.7014083  18.2180113  28.0162753  23.4624083
  18.6480113  28.5852753  23.7874083  17.3420113  35.4232753  25.1114083
  16.6690113  34.9252753  24.8664083  17.7450113  35.6082753  24.3604083
  17.3020113  35.3772753  24.9644083  16.8920113  22.3732753  27.4074083
  17.7350113  22.5932753  27.3644083  16.5030113  22.9462753  26.8764083
  16.9590113  22.4902753  27.3224083  29.3340113  25.5032753  18.1284083
  29.1140113  26.2342753  17.7064083  28.8860113  25.5542753  18.8754083
  29.2350113  25.6182753  18.1764083  20.9430113  28.7052753  22.1094083
  21.6560113  29.2002753  22.1994083  21.1650113  28.1382753  21.4834083
  21.0810113  28.6942753  22.0304083  33.5210113  20.3642753  17.5814083
  32.8590113  19.7962753  17.6044083  33.3280113  20.8762753  16.9014083
  33.3950113  20.3562753  17.4844083  15.0990113  30.3482753  25.4294083
  14.4320113  30.8362753  25.7054083  15.7790113  30.8932753  25.4584083
  15.1010113  30.5002753  25.4744083  22.7460113  24.0582753  35.5254083
  22.2620113  24.6352753  35.9674083  22.7180113  24.3532753  34.7044083
  22.6700113  24.1872753  35.4694083  15.1650113  27.0322753  20.5324083
  14.9800113  26.1932753  20.6844083  15.8240113  26.9962753  19.9624083
  15.2350113  26.9032753  20.4704083  31.5230113  19.9222753  19.8604083
  32.2690113  19.5152753  20.0594083  31.7860113  20.6372753  19.4354083
  31.6720113  19.9682753  19.8274083  25.4660113  32.4082753  24.4364083
  24.9430113  33.0422753  24.1434083  25.7760113  32.0442753  23.7074083
  25.4340113  32.4482753  24.2854083  15.3370113  31.1962753  20.1074083
  15.8890113  31.7652753  20.4714083  15.1050113  30.6812753  20.7724083
  15.3840113  31.2042753  20.2594083  19.5410113  30.1962753  27.1964083
  20.0080113  30.4852753  27.8744083  20.1130113  29.7182753  26.7424083
  19.6950113  30.1682753  27.2294083  27.9770113  22.2102753  24.9334083
  28.3210113  22.3622753  25.7204083  27.5240113  21.4722753  25.0464083
  27.9610113  22.1232753  25.0664083  15.1670113  29.6452753  17.7354083
  15.9230113  29.2132753  17.7934083  15.1820113  30.1772753  18.4264083
  15.2810113  29.6602753  17.8464083  16.1070113  27.8662753  25.7404083
  16.5380113  27.7372753  24.9934083  15.9020113  28.7142753  25.7144083
  16.1400113  27.9722753  25.6264083  22.4530113  21.4302753  19.3904083
  22.4510113  21.3132753  18.5254083  22.2720113  22.2782753  19.4824083
  22.4260113  21.5382753  19.2764083  20.1910113  31.3822753  24.0224083
  20.3170113  32.2252753  24.2094083  20.8590113  30.9832753  24.4184083
  20.3090113  31.4482753  24.1084083  18.8060113  24.2622753  19.0244083
  18.6780113  23.8142753  19.7624083  18.2240113  23.9202753  18.4724083
  18.7010113  24.1452753  19.0524083  18.9730113  26.0922753  25.6234083
  18.1920113  26.0332753  25.2404083  19.0450113  25.3402753  26.0604083
  18.8680113  25.9732753  25.6314083  19.4030113  25.8292753  29.0914083
  19.4280113  25.1542753  28.5404083  18.7570113  26.3252753  28.7794083
  19.3120113  25.8022753  28.9644083  23.5030113  34.6062753  28.4834083
  23.2260113  33.9652753  27.9604083  23.2950113  35.3322753  28.0454083
  23.4320113  34.6192753  28.3414083  25.9430113  19.4482753  30.9164083
  26.0920113  18.6232753  30.6734083  26.3220113  19.5032753  31.7004083
  26.0210113  19.3342753  30.9964083  27.4910113  21.5112753  20.9984083
  27.9810113  22.2282753  20.9214083  26.7010113  21.7722753  20.7354083
  27.4470113  21.6552753  20.9484083  17.2020113  27.1842753  34.6504083
  17.1650113  27.6852753  33.9364083  17.5330113  26.4322753  34.3554083
  17.2450113  27.1462753  34.5014083  23.1010113  32.2342753  34.0854083
  23.4550113  32.0562753  34.8624083  22.6650113  31.5052753  33.8864083
  23.0890113  32.1002753  34.1714083  26.2620113  26.1502753  18.9974083
  26.2540113  26.8722753  18.5074083  25.6230113  26.2852753  19.5744083
  26.1670113  26.2772753  19.0104083  27.2790113  33.0862753  26.8224083
  26.6760113  32.7902753  26.2654083  27.8240113  33.5382753  26.3134083
  27.2700113  33.1092753  26.6644083  21.1840113  34.7492753  20.6704083
  21.0370113  33.9732753  21.0414083  21.8730113  34.6022753  20.1554083
  21.2640113  34.6122753  20.6494083  20.8550113  18.4922753  18.6584083
  20.9520113  18.3852753  19.5194083  20.1470113  18.9982753  18.5934083
  20.7650113  18.5512753  18.7764083  23.4760113  34.2652753  19.0724083
  24.0980113  34.4282753  19.6624083  23.5120113  34.9562753  18.5404083
  23.5730113  34.3912753  19.0814083  26.7430113  33.2842753  35.3454083
  26.9070113  33.5672753  36.1544083  27.0060113  33.9452753  34.8404083
  26.8060113  33.4242753  35.3904083  31.5840113  18.2332753  34.0554083
  30.9470113  17.8332753  33.6134083  31.6100113  17.8022753  34.8134083
  31.4940113  18.1112753  34.1014083  17.9770113  26.7992753  19.9014083
  18.3010113  26.0202753  19.6794083  18.6230113  27.1672753  20.3564083
  18.1200113  26.7382753  19.9354083  14.9740113  18.4602753  20.8694083
  15.1030113  17.7522753  20.3774083  14.6070113  18.1422753  21.5944083
  14.9390113  18.3082753  20.9044083  19.1630113  20.6582753  17.8384083
  18.6520113  20.7112753  17.1324083  19.9470113  20.8982753  17.5424083
  19.2030113  20.7012753  17.6904083  20.6420113  34.9182753  16.6434083
  21.0810113  34.2212753  16.9314083  20.8490113  35.5422753  17.2164083
  20.7380113  34.9072753  16.7704083  17.7380113  27.8812753  28.0734083
  18.4600113  28.3692753  28.0364083  17.4680113  27.8512753  27.2444083
  17.8050113  27.9492753  27.9454083  20.9680113  23.0522753  24.8084083
  21.8140113  22.8622753  24.9064083  20.5980113  22.2752753  24.6704083
  21.0380113  22.9092753  24.8024083  33.5850113  34.6362753  19.1354083
  34.2790113  34.1692753  18.8874083  33.0460113  34.0382753  19.4724083
  33.6080113  34.4782753  19.1484083  15.7890113  24.3902753  21.4634083
  16.2780113  24.0982753  22.1244083  15.9180113  23.7972753  20.8364083
  15.8800113  24.2592753  21.4684083  17.1330113  28.9332753  32.3514083
  16.7120113  28.4152753  31.7904083  16.7810113  29.7192753  32.2084083
  17.0190113  28.9732753  32.2474083  21.7690113  24.2852753  19.6594083
  22.0410113  25.1112753  19.7264083  20.9060113  24.3602753  19.5634083
  21.6820113  24.4182753  19.6544083  29.7420113  21.4072753  34.2914083
  29.2170113  21.8662753  34.8154083  29.3810113  20.6122753  34.2854083
  29.6110113  21.3572753  34.3674083  15.2490113  20.2552753  26.1954083
  15.2930113  20.5992753  25.3944083  16.0040113  20.4922753  26.5624083
  15.3670113  20.3412753  26.1314083  33.2110113  33.1162753  26.2804083
  33.5010113  33.3732753  25.4994083  33.9060113  33.2122753  26.7994083
  33.3570113  33.1682753  26.2414083  29.8160113  31.7192753  18.2624083
  30.1500113  30.9132753  18.2974083  29.0610113  31.6472753  18.6924083
  29.7540113  31.5892753  18.3314083  30.2980113  23.5532753  23.9214083
  29.5530113  23.2302753  24.2394083  30.3000113  24.3792753  24.2014083
  30.1880113  23.6272753  24.0094083  27.1900113  29.5942753  17.6654083
  27.8740113  29.0802753  17.4964083  26.7730113  29.6402753  16.9004083
  27.2290113  29.5252753  17.5274083  21.8720113  30.7442753  28.9694083
  21.5740113  31.3362753  29.5364083  21.9270113  31.1862753  28.2204083
  21.8360113  30.8972753  28.9424083  19.8510113  29.6942753  32.3674083
  19.0450113  29.4042753  32.5344083  19.7620113  30.5622753  32.3734083
  19.7190113  29.7792753  32.3924083  29.2100113  19.8832753  31.3824083
  29.9540113  20.3352753  31.3194083  28.6440113  20.3532753  30.9134083
  29.2370113  20.0202753  31.3044083  21.0980113  22.7702753  31.2014083
  21.2590113  22.0262753  31.6284083  21.0530113  22.5212753  30.3664083
  21.1150113  22.6232753  31.1414083  23.6520113  34.5602753  23.6884083
  24.1980113  35.2392753  23.7424083  23.3020113  34.6422753  22.8934083
  23.6810113  34.6732753  23.5784083  30.4950113  17.8632753  29.0524083
  30.2150113  18.6882753  29.0084083  31.2110113  17.9162753  29.5484083
  30.5600113  17.9932753  29.1194083  22.8500113  18.5782753  31.0814083
  23.5550113  18.8982753  30.6794083  23.0910113  17.7712753  31.3084083
  22.9890113  18.5062753  31.0554083  21.8350113  32.7882753  27.0774083
  21.2110113  33.3702753  26.8954083  22.0830113  32.5022753  26.2914083
  21.7790113  32.8322753  26.9344083  26.1440113  29.4222753  34.0664083
  26.9010113  29.7082753  33.7404083  25.5970113  29.4742753  33.3884083
  26.1750113  29.4722753  33.9174083  31.9160113  24.1182753  17.9094083
  32.2940113  24.7952753  17.5094083  31.0740113  24.3422753  17.9404083
  31.8470113  24.2512753  17.8544083  23.4290113  27.5642753  16.9924083
  22.6240113  27.3872753  16.7074083  23.3960113  28.4152753  17.1844083
  23.3050113  27.6632753  16.9794083  19.3590113  23.6312753  27.1424083
  19.7990113  23.5282753  26.3964083  19.9040113  23.3182753  27.7474083
  19.5040113  23.5702753  27.1214083  24.4880113  34.4372753  32.9574083
  24.9660113  33.8372753  32.5414083  24.1370113  33.9942753  33.6224083
  24.5070113  34.2832753  32.9944083  29.6110113  23.7172753  21.2844083
  29.8180113  23.5162753  22.1084083  30.3670113  23.9852753  20.9424083
  29.7530113  23.7272753  21.3554083  22.9060113  18.6162753  27.1894083
  22.0800113  18.4672753  27.4264083  22.8660113  18.6512753  26.3184083
  22.7780113  18.5992753  27.0954083  30.6330113  19.8002753  22.7584083
  29.9190113  19.3292753  22.9294083  30.4710113  20.1412753  21.9724083
  30.5040113  19.7812753  22.6674083  24.5470113  29.6562753  31.9774083
  23.7520113  29.5922753  32.3284083  24.6180113  30.5032753  31.7824083
  24.4400113  29.7712753  32.0004083  15.4710113  19.0142753  33.2244083
  15.3310113  19.8092753  32.8934083  14.6850113  18.7712753  33.5134083
  15.3340113  19.0962753  33.2184083  20.3770113  35.8632753  27.2944083
  20.3880113  35.9222753  28.1644083  19.9520113  35.1162753  27.1444083
  20.3160113  35.7612753  27.4004083  18.5350113  21.7582753  20.4494083
  18.6610113  21.4292753  19.6514083  17.7230113  21.5092753  20.6484083
  18.4340113  21.6732753  20.3614083  25.0360113  32.3032753  31.0854083
  25.7230113  32.1892753  31.6104083  25.1700113  33.0942753  30.7414083
  25.1570113  32.4032753  31.1124083  17.1410113  35.3612753  32.7364083
  16.4870113  34.7922753  32.8344083  16.7660113  36.1342753  32.8874083
  16.9890113  35.3912753  32.7734083  28.7430113  35.1412753  25.5884083
  28.2920113  35.7842753  25.9674083  29.4510113  35.0622753  26.0934083
  28.7810113  35.2242753  25.7194083  18.5120113  23.7692753  30.8654083
  18.8870113  24.3882753  30.3784083  19.1860113  23.2952753  31.1504083
  18.6670113  23.7912753  30.8354083  16.2870113  22.2172753  30.1404083
  16.3640113  22.0482753  29.2874083  17.0330113  22.6232753  30.3374083
  16.4080113  22.2522753  30.0434083  31.8460113  24.8572753  20.5804083
  31.9490113  24.7992753  19.7164083  32.5870113  24.5252753  20.8984083
  31.9710113  24.8002753  20.4994083  18.8410113  19.6272753  32.5514083
  18.7600113  18.7832753  32.7574083  18.5270113  19.6712753  31.7384083
  18.7830113  19.5092753  32.4614083  25.7660113  31.8222753  21.6874083
  25.5610113  32.6552753  21.5284083  24.9910113  31.4402753  21.8094083
  25.6210113  31.8892753  21.6824083  15.6840113  27.4432753  30.3644083
  16.0040113  27.6622753  29.5834083  15.5840113  26.5782753  30.3094083
  15.7160113  27.3482753  30.2414083  17.1400113  23.3792753  16.9824083
  16.4680113  23.3932753  17.5384083  17.2350113  22.5312753  16.7984083
  17.0550113  23.2562753  17.0374083  26.8270113  19.8032753  33.7184083
  26.9190113  20.5152753  34.2124083  26.1900113  19.3582753  34.1154083
  26.7460113  19.8422753  33.8504083  25.8210113  19.9932753  24.5724083
  25.1210113  20.5112753  24.5164083  25.8590113  19.6132753  23.7884083
  25.7230113  20.0142753  24.4484083  21.1280113  32.0842753  18.0964083
  21.5690113  32.1642753  18.8444083  20.3230113  31.8682753  18.3544083
  21.0740113  32.0642753  18.2454083  29.4190113  20.5092753  27.3724083
  30.2740113  20.6082753  27.5174083  29.0500113  21.0622753  27.9374083
  29.4910113  20.6062753  27.4774083  20.4470113  26.7352753  31.7494083
  20.0510113  27.5092753  31.8244083  20.0410113  26.3622753  31.0734083
  20.3290113  26.7942753  31.6604083  30.0360113  33.8552753  21.6704083
  29.8620113  33.2012753  22.2204083  30.7490113  33.5842753  21.2474083
  30.1160113  33.7182753  21.6894083  18.4570113  31.1542753  18.6974083
  18.2130113  30.8472753  19.4774083  18.4240113  30.4512753  18.1814083
  18.4160113  31.0052753  18.7364083  21.2760113  29.3992753  17.4404083
  20.4580113  29.1312753  17.5804083  21.2480113  30.2512753  17.6254083
  21.1510113  29.4862753  17.4884083  20.8760113  19.7122753  29.1994083
  20.0120113  19.7962753  29.2794083  21.0960113  19.1982753  29.8684083
  20.7810113  19.6492753  29.3104083  32.8940113  18.3472753  30.5284083
  32.8420113  18.3032753  31.3984083  33.5810113  17.8442753  30.3384083
  32.9880113  18.2672753  30.6284083  24.9790113  20.4602753  27.5734083
  24.2420113  20.0062753  27.6864083  25.5500113  20.0582753  28.0964083
  24.9540113  20.3332753  27.6674083  27.2450113  35.5222753  33.6074083
  26.4920113  35.5042753  33.1664083  27.4130113  36.3742753  33.6914083
  27.1590113  35.6452753  33.5544083  22.4820113  24.7892753  32.7774083
  22.1600113  24.2132753  32.2074083  22.1230113  25.5442753  32.5314083
  22.3820113  24.8152753  32.6574083  23.2780113  18.0412753  17.4044083
  23.3560113  18.2882753  16.5714083  22.5350113  18.4182753  17.6624083
  23.1800113  18.1332753  17.3194083  20.9170113  35.1452753  33.0254083
  20.9580113  35.2712753  33.8884083  21.5680113  34.5852753  32.8694083
  21.0190113  35.0812753  33.1304083  18.0960113  19.7952753  29.8474083
  17.7530113  19.0282753  29.6134083  17.4010113  20.3192753  29.9114083
  17.9430113  19.7592753  29.8224083  27.1420113  18.6512753  26.8244083
  27.8120113  19.1952753  26.9514083  26.6390113  19.0752753  26.2514083
  27.1670113  18.7942753  26.7584083  18.5100113  33.5282753  34.3854083
  19.1050113  33.9592753  34.8574083  18.1460113  34.1522753  33.8964083
  18.5440113  33.6842753  34.3824083  16.7490113  23.1092753  23.8034083
  16.3810113  23.4112753  24.5344083  17.2830113  22.4802753  24.0874083
  16.7730113  23.0612753  23.9534083  16.4370113  31.5172753  31.3144083
  15.8630113  31.9332753  31.8234083  17.1700113  31.9822753  31.4094083
  16.4610113  31.6472753  31.4034083  18.2230113  34.7842753  20.0894083
  18.0780113  34.9402753  19.2434083  19.0890113  34.8632753  20.1674083
  18.3300113  34.8192753  19.9764083  22.3900113  27.1812753  19.8174083
  22.4900113  27.3202753  18.9624083  23.2080113  27.1212753  20.1134083
  22.5250113  27.1922753  19.7344083  31.5500113  35.2452753  17.2974083
  32.1870113  35.1112753  17.8784083  31.2090113  34.4512753  17.1804083
  31.5940113  35.1082753  17.3654083  27.6250113  31.5102753  19.6194083
  27.3740113  31.3822753  20.4454083  27.3080113  30.8152753  19.1984083
  27.5410113  31.3892753  19.6794083  32.3700113  22.2272753  34.7684083
  32.1740113  22.8712753  35.3234083  31.6480113  21.7372753  34.7604083
  32.2350113  22.2502753  34.8494083  21.5290113  20.1562753  32.9334083
  21.7630113  19.5802753  32.3204083  20.6870113  19.9752753  33.0744083
  21.4390113  20.0442753  32.8634083  18.9100113  33.5992753  26.5664083
  18.8310113  32.7892753  26.2504083  18.4660113  34.0862753  25.9944083
  18.8330113  33.5512753  26.4354083  24.5110113  29.7182753  19.0494083
  25.2280113  29.3712753  18.6934083  24.4770113  30.5182753  18.7014083
  24.6120113  29.7852753  18.9454083  16.4820113  35.8432753  30.1474083
  16.9750113  35.7872753  30.8654083  16.6700113  35.1102753  29.7124083
  16.5830113  35.7262753  30.1894083  25.9200113  18.3592753   3.2881673
  25.6750113  18.8472753   2.6081673  26.7830113  18.2862753   3.1881673
  26.0110113  18.4202753   3.1731673  25.7290113  25.2752753   7.9591673
  25.2050113  25.8712753   8.3221673  26.1260113  24.9072753   8.6431673
  25.7100113  25.3092753   8.1141673  15.5980113  29.4152753   3.4151673
  15.1570113  29.5332753   4.1581673  15.3150113  28.6402753   3.1301673
  15.4910113  29.3182753   3.4831673  28.4000113  26.3422753   4.6351673
  28.4800113  26.3462753   3.7661673  27.8160113  25.7102753   4.7841673
  28.3250113  26.2492753   4.5291673  18.1070113  30.1112753   2.4941673
  18.7150113  29.9412753   3.0971673  17.3560113  29.9712753   2.9151673
  18.0860113  30.0652753   2.6451673  22.3890113  19.4462753   2.4431673
  22.3190113  20.1232753   1.8971673  23.1300113  19.0582753   2.1941673
  22.4880113  19.4892753   2.3251673  15.5380113  32.1502753   9.6701673
  15.6670113  31.8702753  10.4861673  14.9280113  31.6092753   9.3611673
  15.4670113  32.0292753   9.7451673  22.1120113  29.6752753  14.7371673
  21.8760113  29.6722753  15.5771673  21.3640113  29.5272753  14.3131673
  21.9660113  29.6522753  14.7981673  16.9840113  26.6712753   3.8721673
  16.5220113  26.2792753   3.2451673  17.6840113  26.1582753   3.9641673
  17.0190113  26.5382753   3.7931673  21.4920113  22.2812753   9.2191673
  22.1700113  22.2992753   8.6701673  21.4470113  21.4452753   9.4641673
  21.5850113  22.1602753   9.1741673  22.0940113  32.8672753  12.0001673
  22.2320113  33.6272753  11.5931673  22.8850113  32.5022753  12.0271673
  22.2310113  32.9262753  11.9441673  18.9850113  24.7712753   3.8951673
  19.8020113  24.5842753   4.1381673  18.5080113  24.1572753   4.2911673
  19.0350113  24.6532753   3.9901673  23.1890113  30.7522753   6.5051673
  23.5370113  29.9532753   6.5351673  23.8540113  31.2562753   6.2501673
  23.3390113  30.7082753   6.4721673  23.2460113  30.2012753   2.7161673
  23.5770113  29.5572753   3.2021673  23.4860113  29.9902753   1.9051673
  23.3300113  30.0752753   2.6681673  25.2140113  24.3322753  14.0551673
  24.3660113  24.2332753  13.8771673  25.2430113  25.0772753  14.5091673
  25.0930113  24.4282753  14.0961673  19.5820113  19.8652753   3.1611673
  19.2860113  20.3662753   2.5111673  20.4490113  19.9432753   3.1041673
  19.6660113  19.9512753   3.0571673  29.7720113  17.2922753  13.1691673
  29.6140113  18.0612753  12.7871673  29.0000113  17.0722753  13.5131673
  29.6340113  17.3732753  13.1641673  22.5610113  19.0072753   5.3841673
  22.6340113  19.8672753   5.5131673  22.5230113  18.9322753   4.5161673
  22.5660113  19.1232753   5.2751673  15.4400113  24.4322753   6.8851673
  15.1840113  25.2632753   6.8101673  14.7760113  24.0492753   7.3021673
  15.3040113  24.4982753   6.9361673  15.3500113  34.1422753   4.7851673
  14.7580113  34.7002753   4.4721673  15.7760113  33.8732753   4.0731673
  15.3260113  34.1842753   4.6341673  21.1900113  31.9862753   2.2651673
  20.6110113  31.7112753   2.8571673  21.8140113  31.3772753   2.2901673
  21.1970113  31.8562753   2.3561673  25.5010113  34.6662753   1.7771673
  25.7150113  35.1932753   2.4391673  26.2680113  34.4922753   1.3981673
  25.6460113  34.7182753   1.8191673  18.4690113  19.2492753   7.3761673
  17.9480113  18.6212753   7.0681673  19.0600113  18.8122753   7.8471673
  18.4800113  19.0912753   7.4001673  21.7750113  21.3822753  16.6741673
  21.8920113  20.9282753  15.9381673  22.0630113  22.1802753  16.4711673
  21.8350113  21.4332753  16.5351673  16.8950113  32.8122753   2.7161673
  17.5510113  32.2372753   2.7311673  17.2840113  33.5612753   2.4951673
  17.0500113  32.8372753   2.6861673  32.6280113  21.9062753   3.9781673
  32.2820113  22.5842753   4.4041673  31.9920113  21.3082753   3.9941673
  32.4830113  21.9182753   4.0431673  27.9400113  34.6762753  10.0821673
  28.6840113  35.1322753  10.0721673  27.8190113  34.4622753   9.2451673
  28.0320113  34.7122753   9.9571673  17.5080113  20.9792753  15.6581673
  16.7300113  20.5892753  15.5861673  17.9990113  20.5672753  15.0671673
  17.4650113  20.8602753  15.5601673  17.7130113  31.2992753   6.2161673
  18.1360113  30.9432753   5.5421673  18.0370113  30.8772753   6.9081673
  17.8230113  31.1842753   6.2191673  20.9440113  34.1512753   5.5121673
  21.7880113  34.2552753   5.3171673  20.6470113  34.9692753   5.5801673
  21.0250113  34.2872753   5.4931673  24.1570113  18.6222753  14.8261673
  24.3350113  17.8132753  14.5511673  24.0140113  19.0632753  14.0871673
  24.1620113  18.5682753  14.6761673  24.7510113  23.5482753   3.5991673
  25.0380113  23.3162753   2.8091673  25.4830113  23.6272753   4.0681673
  24.9010113  23.5252753   3.5521673  19.9420113  35.3702753  11.2521673
  20.2340113  35.3032753  12.0721673  19.3160113  34.7652753  11.2071673
  19.8930113  35.2712753  11.3671673  32.3030113  20.2292753   9.3471673
  33.0600113  20.3012753   8.9191673  32.3660113  19.4562753   9.7461673
  32.4240113  20.1262753   9.3421673  14.8560113  21.5272753  13.2441673
  14.8520113  22.1142753  13.8901673  15.4500113  21.8392753  12.6871673
  14.9430113  21.6602753  13.2571673  27.1940113  31.8612753  13.7861673
  27.1600113  32.2432753  14.5701673  28.0480113  31.8192753  13.6151673
  27.3150113  31.9112753  13.8771673  15.7930113  21.1222753   2.1591673
  15.6790113  20.2582753   2.1901673  15.3180113  21.4162753   2.8291673
  15.7060113  21.0382753   2.2621673  17.9350113  33.5322753  10.3741673
  17.2370113  33.0242753  10.5001673  18.1950113  33.3272753   9.5661673
  17.8700113  33.4272753  10.2731673  25.6460113  35.0252753  11.2841673
  26.4140113  34.9452753  10.8781673  25.0630113  34.9042753  10.6461673
  25.6730113  34.9952753  11.1301673  31.9230113  35.6282753   4.1851673
  31.4680113  36.3452753   4.3861673  31.3090113  35.0572753   3.9431673
  31.7650113  35.6502753   4.1791673  23.6950113  21.6382753   5.3171673
  23.7690113  22.2062753   4.6591673  23.8160113  22.1302753   6.0271673
  23.7230113  21.7952753   5.3251673  28.9200113  31.4732753   3.7291673
  29.6210113  30.9912753   3.9181673  28.2600113  30.9042753   3.7741673
  28.9260113  31.3182753   3.7631673  19.2960113  32.3832753  12.9411673
  20.1370113  32.4462753  12.7191673  19.2590113  32.7802753  13.7171673
  19.4150113  32.4512753  13.0231673  18.3030113  17.4612753   3.6651673
  18.8390113  18.1492753   3.6551673  18.3060113  17.1872753   2.8371673
  18.3820113  17.5222753   3.5411673  21.2590113  27.8942753   7.6901673
  21.4310113  27.6842753   8.5191673  20.6040113  27.3602753   7.4741673
  21.1880113  27.7842753   7.7811673  27.4870113  21.8082753  11.2051673
  27.3920113  22.1272753  12.0111673  26.8940113  21.1692753  11.1671673
  27.3850113  21.7602753  11.3191673  22.0090113  27.8322753  10.2801673
  22.0620113  28.6792753  10.4821673  21.7240113  27.4622753  11.0171673
  21.9750113  27.9022753  10.4181673  28.1860113  28.5272753   9.4101673
  27.6720113  28.1152753   9.9811673  28.0600113  29.3712753   9.5911673
  28.0920113  28.5912753   9.5211673  28.7430113  17.7522753   4.0411673
  28.7920113  17.4342753   4.8521673  29.0660113  17.1082753   3.5481673
  28.7980113  17.6102753   4.0881673  14.8300113  32.2032753  16.4911673
  15.5860113  32.5522753  16.7491673  15.0070113  31.3502753  16.4341673
  14.9680113  32.1282753  16.5211673  31.2070113  21.9882753  12.3491673
  31.9790113  21.7632753  12.6861673  30.7320113  22.2052753  13.0491673
  31.2510113  21.9872753  12.5021673  18.7510113  21.2712753   5.3191673
  19.0230113  20.8412753   4.6111673  18.5750113  20.6352753   5.8901673
  18.7650113  21.1142753   5.2991673  18.5750113  28.6982753   4.8681673
  19.4260113  28.6182753   4.6951673  18.2180113  28.0162753   4.4561673
  18.6480113  28.5852753   4.7811673  17.3420113  35.4232753   6.1051673
  16.6690113  34.9252753   5.8601673  17.7450113  35.6082753   5.3541673
  17.3020113  35.3772753   5.9581673  16.8920113  22.3732753   8.4011673
  17.7350113  22.5932753   8.3581673  16.5030113  22.9462753   7.8701673
  16.9590113  22.4902753   8.3161673  33.6730113  33.4752753  13.7911673
  32.9910113  33.7852753  13.3441673  33.3040113  33.0172753  14.4361673
  33.5170113  33.4532753  13.8201673  20.9430113  28.7052753   3.1031673
  21.6560113  29.2002753   3.1931673  21.1650113  28.1382753   2.4771673
  21.0810113  28.6942753   3.0241673  15.0990113  30.3482753   6.4231673
  14.4320113  30.8362753   6.6991673  15.7790113  30.8932753   6.4521673
  15.1010113  30.5002753   6.4681673  22.7460113  24.0582753  16.5191673
  22.2620113  24.6352753  16.9611673  22.7180113  24.3532753  15.6981673
  22.6700113  24.1872753  16.4631673  33.8440113  24.7422753  11.1311673
  34.0590113  23.9422753  10.8551673  32.9940113  24.8022753  10.9421673
  33.7500113  24.6332753  11.0621673  25.4660113  32.4082753   5.4301673
  24.9430113  33.0422753   5.1371673  25.7760113  32.0442753   4.7011673
  25.4340113  32.4482753   5.2791673  19.5410113  30.1962753   8.1901673
  20.0080113  30.4852753   8.8681673  20.1130113  29.7182753   7.7361673
  19.6950113  30.1682753   8.2231673  27.9770113  22.2102753   5.9271673
  28.3210113  22.3622753   6.7141673  27.5240113  21.4722753   6.0401673
  27.9610113  22.1232753   6.0601673  16.1070113  27.8662753   6.7341673
  16.5380113  27.7372753   5.9871673  15.9020113  28.7142753   6.7081673
  16.1400113  27.9722753   6.6201673  31.5070113  33.8572753  11.8811673
  30.8360113  34.3712753  12.0991673  31.5700113  33.9572753  11.0171673
  31.4170113  33.9482753  11.7861673  20.1910113  31.3822753   5.0161673
  20.3170113  32.2252753   5.2031673  20.8590113  30.9832753   5.4121673
  20.3090113  31.4482753   5.1021673  18.3210113  24.8652753  14.8781673
  17.7850113  24.3592753  15.3461673  18.3410113  24.4752753  14.0981673
  18.2440113  24.7322753  14.8321673  18.9730113  26.0922753   6.6171673
  18.1920113  26.0332753   6.2341673  19.0450113  25.3402753   7.0541673
  18.8680113  25.9732753   6.6251673  19.4030113  25.8292753  10.0851673
  19.4280113  25.1542753   9.5341673  18.7570113  26.3252753   9.7731673
  19.3120113  25.8022753   9.9581673  29.2980113  23.5422753   8.4811673
  28.6360113  23.8702753   8.9441673  29.4850113  24.1762753   7.9121673
  29.2280113  23.6842753   8.4651673  23.5030113  34.6062753   9.4771673
  23.2260113  33.9652753   8.9541673  23.2950113  35.3322753   9.0391673
  23.4320113  34.6192753   9.3351673  25.9430113  19.4482753  11.9101673
  26.0920113  18.6232753  11.6671673  26.3220113  19.5032753  12.6941673
  26.0210113  19.3342753  11.9901673  27.4910113  21.5112753   1.9921673
  27.9810113  22.2282753   1.9151673  26.7010113  21.7722753   1.7291673
  27.4470113  21.6552753   1.9421673  17.2020113  27.1842753  15.6441673
  17.1650113  27.6852753  14.9301673  17.5330113  26.4322753  15.3491673
  17.2450113  27.1462753  15.4951673  28.8050113  29.3892753  13.9021673
  29.2890113  30.1072753  14.0001673  29.1990113  28.9622753  13.2511673
  28.9350113  29.4322753  13.8201673  23.1010113  32.2342753  15.0791673
  23.4550113  32.0562753  15.8561673  22.6650113  31.5052753  14.8801673
  23.0890113  32.1002753  15.1651673  24.0730113  22.9812753   7.7171673
  24.5530113  23.6802753   7.9251673  24.4460113  22.3342753   8.1681673
  24.1990113  22.9892753   7.8141673  31.2340113  30.0202753   3.9721673
  31.5900113  29.6702753   4.6871673  31.2260113  29.3592753   3.4021673
  31.2860113  29.8702753   3.9931673  27.2790113  33.0862753   7.8161673
  26.6760113  32.7902753   7.2591673  27.8240113  33.5382753   7.3071673
  27.2700113  33.1092753   7.6581673  27.2920113  29.9372753   7.2161673
  26.4950113  30.1612753   7.4901673  27.5500113  29.3432753   7.8011673
  27.2120113  29.8822753   7.3431673  30.5520113  27.9352753  12.0621673
  30.6070113  28.0602753  11.2001673  31.3050113  28.2552753  12.3641673
  30.6710113  28.0002753  11.9791673  26.7430113  33.2842753  16.3391673
  26.9070113  33.5672753  17.1481673  27.0060113  33.9452753  15.8341673
  26.8060113  33.4242753  16.3841673  31.5840113  18.2332753  15.0491673
  30.9470113  17.8332753  14.6071673  31.6100113  17.8022753  15.8071673
  31.4940113  18.1112753  15.0951673  26.2830113  27.7412753  11.6621673
  26.1280113  28.3512753  12.2661673  26.8170113  27.1832753  12.0681673
  26.3390113  27.7492753  11.8111673  14.9740113  18.4602753   1.8631673
  15.1030113  17.7522753   1.3711673  14.6070113  18.1422753   2.5881673
  14.9390113  18.3082753   1.8981673  24.6670113  26.1412753   2.3201673
  24.7260113  26.7912753   2.8991673  24.4780113  25.4452753   2.8111673
  24.6480113  26.1342753   2.4781673  29.8930113  30.4702753   8.1891673
  29.4140113  30.7682753   7.5231673  29.5370113  29.6942753   8.3671673
  29.7700113  30.3992753   8.1171673  23.8900113  28.1882753   6.7511673
  23.0430113  27.9942753   6.8321673  24.2140113  28.0232753   7.5441673
  23.8120113  28.1352753   6.8801673  17.7380113  27.8812753   9.0671673
  18.4600113  28.3692753   9.0301673  17.4680113  27.8512753   8.2381673
  17.8050113  27.9492753   8.9391673  20.9680113  23.0522753   5.8021673
  21.8140113  22.8622753   5.9001673  20.5980113  22.2752753   5.6641673
  21.0380113  22.9092753   5.7961673  15.7890113  24.3902753   2.4571673
  16.2780113  24.0982753   3.1181673  15.9180113  23.7972753   1.8301673
  15.8800113  24.2592753   2.4621673  30.8240113  27.4122753   9.3081673
  30.8170113  26.6362753   9.7061673  29.9830113  27.6462753   9.3011673
  30.6990113  27.3322753   9.3661673  17.1330113  28.9332753  13.3451673
  16.7120113  28.4152753  12.7841673  16.7810113  29.7192753  13.2021673
  17.0190113  28.9732753  13.2411673  32.0800113  27.4832753   6.7451673
  31.7940113  27.8842753   7.4651673  32.9400113  27.4212753   6.8721673
  32.1650113  27.5332753   6.8701673  29.7420113  21.4072753  15.2851673
  29.2170113  21.8662753  15.8091673  29.3810113  20.6122753  15.2791673
  29.6110113  21.3572753  15.3611673  15.2490113  20.2552753   7.1891673
  15.2930113  20.5992753   6.3881673  16.0040113  20.4922753   7.5561673
  15.3670113  20.3412753   7.1251673  33.2110113  33.1162753   7.2741673
  33.5010113  33.3732753   6.4931673  33.9060113  33.2122753   7.7931673
  33.3570113  33.1682753   7.2351673  28.2340113  24.9762753  15.3611673
  28.3070113  25.0802753  16.2241673  27.6000113  25.5342753  15.1401673
  28.1510113  25.0742753  15.4561673  30.5020113  25.2952753  13.7261673
  30.8210113  26.0812753  13.9291673  30.1320113  25.0252753  14.4691673
  30.4950113  25.3712753  13.8661673  30.2980113  23.5532753   4.9151673
  29.5530113  23.2302753   5.2331673  30.3000113  24.3792753   5.1951673
  30.1880113  23.6272753   5.0031673  33.2000113  25.8372753  16.4611673
  33.1480113  25.4962753  15.6601673  33.9370113  26.3042753  16.4391673
  33.3010113  25.8562753  16.3391673  32.7380113  29.5132753  12.6671673
  33.3660113  28.9642753  12.4111673  32.6770113  30.0782753  12.0051673
  32.8220113  29.5162753  12.5311673  21.8720113  30.7442753   9.9631673
  21.5740113  31.3362753  10.5301673  21.9270113  31.1862753   9.2141673
  21.8360113  30.8972753   9.9361673  19.8510113  29.6942753  13.3611673
  19.0450113  29.4042753  13.5281673  19.7620113  30.5622753  13.3671673
  19.7190113  29.7792753  13.3861673  29.2100113  19.8832753  12.3761673
  29.9540113  20.3352753  12.3131673  28.6440113  20.3532753  11.9071673
  29.2370113  20.0202753  12.2981673  24.3880113  27.1672753   9.4541673
  24.8640113  27.5412753  10.0821673  23.5650113  27.3012753   9.7131673
  24.3370113  27.2422753   9.5851673  21.0980113  22.7702753  12.1951673
  21.2590113  22.0262753  12.6221673  21.0530113  22.5212753  11.3601673
  21.1150113  22.6232753  12.1351673  23.6520113  34.5602753   4.6821673
  24.1980113  35.2392753   4.7361673  23.3020113  34.6422753   3.8871673
  23.6810113  34.6732753   4.5721673  30.4950113  17.8632753  10.0461673
  30.2150113  18.6882753  10.0021673  31.2110113  17.9162753  10.5421673
  30.5600113  17.9932753  10.1131673  22.8500113  18.5782753  12.0751673
  23.5550113  18.8982753  11.6731673  23.0910113  17.7712753  12.3021673
  22.9890113  18.5062753  12.0491673  21.8350113  32.7882753   8.0711673
  21.2110113  33.3702753   7.8891673  22.0830113  32.5022753   7.2851673
  21.7790113  32.8322753   7.9281673  26.1440113  29.4222753  15.0601673
  26.9010113  29.7082753  14.7341673  25.5970113  29.4742753  14.3821673
  26.1750113  29.4722753  14.9111673  30.0530113  31.9722753  13.5641673
  30.3990113  32.2422753  14.3181673  30.3470113  32.5542753  12.9841673
  30.1480113  32.0982753  13.5901673  19.3590113  23.6312753   8.1361673
  19.7990113  23.5282753   7.3901673  19.9040113  23.3182753   8.7411673
  19.5040113  23.5702753   8.1151673  27.3750113  22.7332753  13.7281673
  26.7270113  23.2032753  14.0761673  27.9400113  22.6442753  14.3871673
  27.3630113  22.7892753  13.8771673  27.0630113  24.2702753  10.0261673
  27.3650113  24.6902753  10.7291673  27.0990113  23.4302753  10.2581673
  27.1130113  24.2082753  10.1641673  24.4880113  34.4372753  13.9511673
  24.9660113  33.8372753  13.5351673  24.1370113  33.9942753  14.6161673
  24.5070113  34.2832753  13.9881673  29.6110113  23.7172753   2.2781673
  29.8180113  23.5162753   3.1021673  30.3670113  23.9852753   1.9361673
  29.7530113  23.7272753   2.3491673  22.9060113  18.6162753   8.1831673
  22.0800113  18.4672753   8.4201673  22.8660113  18.6512753   7.3121673
  22.7780113  18.5992753   8.0891673  30.6330113  19.8002753   3.7521673
  29.9190113  19.3292753   3.9231673  30.4710113  20.1412753   2.9661673
  30.5040113  19.7812753   3.6611673  31.0760113  27.7442753   2.1321673
  31.5520113  27.0152753   2.0841673  30.2550113  27.4582753   2.0561673
  31.0250113  27.5942753   2.1131673  24.5470113  29.6562753  12.9711673
  23.7520113  29.5922753  13.3221673  24.6180113  30.5032753  12.7761673
  24.4400113  29.7712753  12.9941673  15.4710113  19.0142753  14.2181673
  15.3310113  19.8092753  13.8871673  14.6850113  18.7712753  14.5071673
  15.3340113  19.0962753  14.2121673  20.3770113  35.8632753   8.2881673
  20.3880113  35.9222753   9.1581673  19.9520113  35.1162753   8.1381673
  20.3160113  35.7612753   8.3941673  27.2920113  28.9112753   4.4871673
  27.3680113  29.2522753   5.2861673  27.4610113  28.0642753   4.6081673
  27.3280113  28.8362753   4.6231673  24.8140113  28.1852753   4.0521673
  24.5160113  27.8702753   4.8091673  25.5090113  28.6582753   4.2871673
  24.8730113  28.2082753   4.1991673  25.0360113  32.3032753  12.0791673
  25.7230113  32.1892753  12.6041673  25.1700113  33.0942753  11.7351673
  25.1570113  32.4032753  12.1061673  33.2120113  24.9122753  13.8901673
  32.3570113  24.7902753  14.0161673  33.3650113  24.5172753  13.1271673
  33.1080113  24.8352753  13.7961673  27.7250113  25.5772753  12.4661673
  27.4700113  24.8582753  12.8881673  28.5460113  25.6932753  12.7361673
  27.8090113  25.4882753  12.5681673  17.1410113  35.3612753  13.7301673
  16.4870113  34.7922753  13.8281673  16.7660113  36.1342753  13.8811673
  16.9890113  35.3912753  13.7671673  25.6590113  26.7672753  15.6531673
  25.9820113  27.4532753  15.2211673  24.9550113  27.0902753  16.0551673
  25.6020113  26.9162753  15.6481673  25.4440113  30.2312753   9.5121673
  24.7500113  30.6332753   9.8551673  26.1210113  30.6642753   9.8511673
  25.4410113  30.3542753   9.6131673  30.8210113  32.8242753  16.0921673
  31.5970113  32.4342753  16.1751673  30.3520113  32.4882753  16.7471673
  30.8660113  32.7172753  16.2011673  18.5120113  23.7692753  11.8591673
  18.8870113  24.3882753  11.3721673  19.1860113  23.2952753  12.1441673
  18.6670113  23.7912753  11.8291673  16.2870113  22.2172753  11.1341673
  16.3640113  22.0482753  10.2811673  17.0330113  22.6232753  11.3311673
  16.4080113  22.2522753  11.0371673  18.8410113  19.6272753  13.5451673
  18.7600113  18.7832753  13.7511673  18.5270113  19.6712753  12.7321673
  18.7830113  19.5092753  13.4551673  25.7660113  31.8222753   2.6811673
  25.5610113  32.6552753   2.5221673  24.9910113  31.4402753   2.8031673
  25.6210113  31.8892753   2.6761673  30.9480113  25.0032753  10.9301673
  30.9460113  24.1402753  11.0541673  31.0150113  25.3272753  11.7371673
  30.9580113  24.9232753  11.0671673  15.6840113  27.4432753  11.3581673
  16.0040113  27.6622753  10.5771673  15.5840113  26.5782753  11.3031673
  15.7160113  27.3482753  11.2351673  26.8270113  19.8032753  14.7121673
  26.9190113  20.5152753  15.2061673  26.1900113  19.3582753  15.1091673
  26.7460113  19.8422753  14.8441673  25.8210113  19.9932753   5.5661673
  25.1210113  20.5112753   5.5101673  25.8590113  19.6132753   4.7821673
  25.7230113  20.0142753   5.4421673  29.4190113  20.5092753   8.3661673
  30.2740113  20.6082753   8.5111673  29.0500113  21.0622753   8.9311673
  29.4910113  20.6062753   8.4711673  20.4470113  26.7352753  12.7431673
  20.0510113  27.5092753  12.8181673  20.0410113  26.3622753  12.0671673
  20.3290113  26.7942753  12.6541673  29.7230113  25.7892753   6.8571673
  30.3890113  26.3302753   7.0171673  29.3780113  26.1002753   6.1181673
  29.7700113  25.9152753   6.7721673  30.0360113  33.8552753   2.6641673
  29.8620113  33.2012753   3.2141673  30.7490113  33.5842753   2.2411673
  30.1160113  33.7182753   2.6831673  20.8760113  19.7122753  10.1931673
  20.0120113  19.7962753  10.2731673  21.0960113  19.1982753  10.8621673
  20.7810113  19.6492753  10.3041673  32.8940113  18.3472753  11.5221673
  32.8420113  18.3032753  12.3921673  33.5810113  17.8442753  11.3321673
  32.9880113  18.2672753  11.6221673  24.9790113  20.4602753   8.5671673
  24.2420113  20.0062753   8.6801673  25.5500113  20.0582753   9.0901673
  24.9540113  20.3332753   8.6611673  27.7110113  31.3082753  10.3551673
  27.9170113  31.6092753  11.1471673  27.6500113  32.0302753   9.8701673
  27.7320113  31.4592753  10.4001673  27.2450113  35.5222753  14.6011673
  26.4920113  35.5042753  14.1601673  27.4130113  36.3742753  14.6851673
  27.1590113  35.6452753  14.5481673  22.4820113  24.7892753  13.7711673
  22.1600113  24.2132753  13.2011673  22.1230113  25.5442753  13.5251673
  22.3820113  24.8152753  13.6511673  32.5230113  29.9472753   9.8131673
  32.4910113  29.0852753   9.6781673  31.8300113  30.2492753   9.3791673
  32.4160113  29.8642753   9.7291673  20.9170113  35.1452753  14.0191673
  20.9580113  35.2712753  14.8821673  21.5680113  34.5852753  13.8631673
  21.0190113  35.0812753  14.1241673  30.6280113  33.2072753   8.6101673
  31.1550113  33.1242753   7.9191673  30.2370113  32.4292753   8.6641673
  30.6480113  33.0802753   8.5161673  18.0960113  19.7952753  10.8411673
  17.7530113  19.0282753  10.6071673  17.4010113  20.3192753  10.9051673
  17.9430113  19.7592753  10.8161673  27.1420113  18.6512753   7.8181673
  27.8120113  19.1952753   7.9451673  26.6390113  19.0752753   7.2451673
  27.1670113  18.7942753   7.7521673  18.5100113  33.5282753  15.3791673
  19.1050113  33.9592753  15.8511673  18.1460113  34.1522753  14.8901673
  18.5440113  33.6842753  15.3761673  26.5010113  24.4592753   5.3111673
  27.0520113  23.8522753   5.6111673  26.0760113  24.7222753   6.0261673
  26.5200113  24.4082753   5.4601673  16.7490113  23.1092753   4.7971673
  16.3810113  23.4112753   5.5281673  17.2830113  22.4802753   5.0811673
  16.7730113  23.0612753   4.9471673  16.4370113  31.5172753  12.3081673
  15.8630113  31.9332753  12.8171673  17.1700113  31.9822753  12.4031673
  16.4610113  31.6472753  12.3971673  28.4710113  26.2902753   1.8731673
  28.5390113  25.4402753   2.0541673  27.6480113  26.3762753   1.5951673
  28.3590113  26.1772753   1.8591673  32.3700113  22.2272753  15.7621673
  32.1740113  22.8712753  16.3171673  31.6480113  21.7372753  15.7541673
  32.2350113  22.2502753  15.8431673  32.2690113  23.1682753   8.7331673
  31.4360113  23.4182753   8.6611673  32.2130113  22.3282753   8.9621673
  32.1380113  23.0812753   8.7561673  21.5290113  20.1562753  13.9271673
  21.7630113  19.5802753  13.3141673  20.6870113  19.9752753  14.0681673
  21.4390113  20.0442753  13.8571673  29.1560113  27.7742753  16.3791673
  30.0270113  27.7382753  16.3431673  28.9370113  28.1942753  15.6471673
  29.2530113  27.8302753  16.2661673  18.9100113  33.5992753   7.5601673
  18.8310113  32.7892753   7.2441673  18.4660113  34.0862753   6.9881673
  18.8330113  33.5512753   7.4291673  16.4820113  35.8432753  11.1411673
  16.9750113  35.7872753  11.8591673  16.6700113  35.1102753  10.7061673
  16.5830113  35.7262753  11.1831673  25.7290113   6.7971673  83.9841313
  25.2050113   7.3931673  84.3471313  26.1260113   6.4291673  84.6681313
  25.7100113   6.8311673  84.1391313  15.5980113  10.9371673  79.4401313
  15.1570113  11.0551673  80.1831313  15.3150113  10.1621673  79.1551313
  15.4910113  10.8401673  79.5081313  31.8730113  14.2381673  76.9551313
  32.5740113  13.7191673  76.9511313  31.2860113  13.7931673  76.4861313
  31.8900113  14.0951673  76.8851313  15.3410113   4.7291673  75.9471313
  14.5630113   4.8911673  75.5871313  15.3800113   3.8581673  75.9691313
  15.2320113   4.6241673  75.8971313  18.4800113   9.9921673  74.6191313
  18.0880113   9.6211673  73.9331313  18.4000113   9.3941673  75.2481313
  18.4100113   9.8491673  74.6101313  28.4000113   7.8641673  80.6601313
  28.4800113   7.8681673  79.7911313  27.8160113   7.2321673  80.8091313
  28.3250113   7.7711673  80.5541313  18.1070113  11.6331673  78.5191313
  18.7150113  11.4631673  79.1221313  17.3560113  11.4931673  78.9401313
  18.0860113  11.5871673  78.6701313  16.9980113  14.7241673  74.5961313
  17.4650113  14.8081673  73.8641313  17.4530113  14.1461673  75.0651313
  17.1340113  14.6511673  74.5571313  15.5380113  13.6721673  85.6951313
  15.6670113  13.3921673  86.5111313  14.9280113  13.1311673  85.3861313
  15.4670113  13.5511673  85.7701313  16.9840113   8.1931673  79.8971313
  16.5220113   7.8011673  79.2701313  17.6840113   7.6801673  79.9891313
  17.0190113   8.0601673  79.8181313  21.4920113   3.8031673  85.2441313
  22.1700113   3.8211673  84.6951313  21.4470113   2.9671673  85.4891313
  21.5850113   3.6821673  85.1991313  22.0940113  14.3891673  88.0251313
  22.2320113  15.1491673  87.6181313  22.8850113  14.0241673  88.0521313
  22.2310113  14.4481673  87.9691313  18.9850113   6.2931673  79.9201313
  19.8020113   6.1061673  80.1631313  18.5080113   5.6791673  80.3161313
  19.0350113   6.1751673  80.0151313  23.1890113  12.2741673  82.5301313
  23.5370113  11.4751673  82.5601313  23.8540113  12.7781673  82.2751313
  23.3390113  12.2301673  82.4971313  23.2460113  11.7231673  78.7411313
  23.5770113  11.0791673  79.2271313  23.4860113  11.5121673  77.9301313
  23.3300113  11.5971673  78.6931313  27.2340113   3.4551673  73.7081313
  26.7840113   4.1361673  74.0151313  27.3480113   2.9511673  74.4111313
  27.1850113   3.4811673  73.8571313  15.4400113   5.9541673  82.9101313
  15.1840113   6.7851673  82.8351313  14.7760113   5.5711673  83.3271313
  15.3040113   6.0201673  82.9611313  15.3500113  15.6641673  80.8101313
  14.7580113  16.2221673  80.4971313  15.7760113  15.3951673  80.0981313
  15.3260113  15.7061673  80.6591313  21.1900113  13.5081673  78.2901313
  20.6110113  13.2331673  78.8821313  21.8140113  12.8991673  78.3151313
  21.1970113  13.3781673  78.3811313  27.3330113  15.7961673  75.8121313
  28.0600113  16.2681673  75.9141313  27.5620113  15.0021673  76.0921313
  27.4750113  15.7491673  75.8691313  25.5010113  16.1881673  77.8021313
  25.7150113  16.7151673  78.4641313  26.2680113  16.0141673  77.4231313
  25.6460113  16.2401673  77.8441313  16.8950113  14.3341673  78.7411313
  17.5510113  13.7591673  78.7561313  17.2840113  15.0831673  78.5201313
  17.0500113  14.3591673  78.7111313  32.6280113   3.4281673  80.0031313
  32.2820113   4.1061673  80.4291313  31.9920113   2.8301673  80.0191313
  32.4830113   3.4401673  80.0681313  27.9400113  16.1981673  86.1071313
  28.6840113  16.6541673  86.0971313  27.8190113  15.9841673  85.2701313
  28.0320113  16.2341673  85.9821313  17.7130113  12.8211673  82.2411313
  18.1360113  12.4651673  81.5671313  18.0370113  12.3991673  82.9331313
  17.8230113  12.7061673  82.2441313  20.9440113  15.6731673  81.5371313
  21.7880113  15.7771673  81.3421313  20.6470113  16.4911673  81.6051313
  21.0250113  15.8091673  81.5181313  24.7510113   5.0701673  79.6241313
  25.0380113   4.8381673  78.8341313  25.4830113   5.1491673  80.0931313
  24.9010113   5.0471673  79.5771313  25.4730113   5.4091673  74.7451313
  25.7540113   6.1971673  74.9941313  24.6970113   5.5741673  74.3821313
  25.4000113   5.5501673  74.7281313  29.5140113  17.3831673  76.2121313
  30.1790113  17.2351673  75.6671313  29.8740113  17.3001673  77.0021313
  29.6660113  17.3491673  76.2481313  19.9420113  16.8921673  87.2771313
  20.2340113  16.8251673  88.0971313  19.3160113  16.2871673  87.2321313
  19.8930113  16.7931673  87.3921313  24.3320113  13.5801673  74.5611313
  24.1510113  14.1251673  75.2181313  25.0980113  13.8701673  74.2601313
  24.4180113  13.7041673  74.6141313  15.7930113   2.6441673  78.1841313
  15.6790113   1.7801673  78.2151313  15.3180113   2.9381673  78.8541313
  15.7060113   2.5601673  78.2871313  17.9350113  15.0541673  86.3991313
  17.2370113  14.5461673  86.5251313  18.1950113  14.8491673  85.5911313
  17.8700113  14.9491673  86.2981313  25.0970113   3.8521673  76.9291313
  24.5890113   3.1901673  76.6751313  25.1490113   4.3561673  76.2191313
  25.0300113   3.8291673  76.7871313  25.6460113  16.5471673  87.3091313
  26.4140113  16.4671673  86.9031313  25.0630113  16.4261673  86.6711313
  25.6730113  16.5171673  87.1551313  31.9230113  17.1501673  80.2101313
  31.4680113  17.8671673  80.4111313  31.3090113  16.5791673  79.9681313
  31.7650113  17.1721673  80.2041313  23.6950113   3.1601673  81.3421313
  23.7690113   3.7281673  80.6841313  23.8160113   3.6521673  82.0521313
  23.7230113   3.3171673  81.3501313  28.9200113  12.9951673  79.7541313
  29.6210113  12.5131673  79.9431313  28.2600113  12.4261673  79.7991313
  28.9260113  12.8401673  79.7881313  21.2590113   9.4161673  83.7151313
  21.4310113   9.2061673  84.5441313  20.6040113   8.8821673  83.4991313
  21.1880113   9.3061673  83.8061313  27.4870113   3.3301673  87.2301313
  27.3920113   3.6491673  88.0361313  26.8940113   2.6911673  87.1921313
  27.3850113   3.2821673  87.3441313  22.0090113   9.3541673  86.3051313
  22.0620113  10.2011673  86.5071313  21.7240113   8.9841673  87.0421313
  21.9750113   9.4241673  86.4431313  28.1860113  10.0491673  85.4351313
  27.6720113   9.6371673  86.0061313  28.0600113  10.8931673  85.6161313
  28.0920113  10.1131673  85.5461313  18.7510113   2.7931673  81.3441313
  19.0230113   2.3631673  80.6361313  18.5750113   2.1571673  81.9151313
  18.7650113   2.6361673  81.3241313  31.4390113  10.4881673  75.5621313
  31.5580113  10.2011673  76.3771313  32.2460113  10.5091673  75.2321313
  31.5750113  10.4491673  75.6341313  18.5750113  10.2201673  80.8931313
  19.4260113  10.1401673  80.7201313  18.2180113   9.5381673  80.4811313
  18.6480113  10.1071673  80.8061313  17.3420113  16.9451673  82.1301313
  16.6690113  16.4471673  81.8851313  17.7450113  17.1301673  81.3791313
  17.3020113  16.8991673  81.9831313  16.8920113   3.8951673  84.4261313
  17.7350113   4.1151673  84.3831313  16.5030113   4.4681673  83.8951313
  16.9590113   4.0121673  84.3411313  29.3340113   7.0251673  75.1471313
  29.1140113   7.7561673  74.7251313  28.8860113   7.0761673  75.8941313
  29.2350113   7.1401673  75.1951313  20.9430113  10.2271673  79.1281313
  21.6560113  10.7221673  79.2181313  21.1650113   9.6601673  78.5021313
  21.0810113  10.2161673  79.0491313  15.0990113  11.8701673  82.4481313
  14.4320113  12.3581673  82.7241313  15.7790113  12.4151673  82.4771313
  15.1010113  12.0221673  82.4931313  33.8440113   6.2641673  87.1561313
  34.0590113   5.4641673  86.8801313  32.9940113   6.3241673  86.9671313
  33.7500113   6.1551673  87.0871313  15.1650113   8.5541673  77.5511313
  14.9800113   7.7151673  77.7031313  15.8240113   8.5181673  76.9811313
  15.2350113   8.4251673  77.4891313  25.4660113  13.9301673  81.4551313
  24.9430113  14.5641673  81.1621313  25.7760113  13.5661673  80.7261313
  25.4340113  13.9701673  81.3041313  15.3370113  12.7181673  77.1261313
  15.8890113  13.2871673  77.4901313  15.1050113  12.2031673  77.7911313
  15.3840113  12.7261673  77.2781313  19.5410113  11.7181673  84.2151313
  20.0080113  12.0071673  84.8931313  20.1130113  11.2401673  83.7611313
  19.6950113  11.6901673  84.2481313  27.9770113   3.7321673  81.9521313
  28.3210113   3.8841673  82.7391313  27.5240113   2.9941673  82.0651313
  27.9610113   3.6451673  82.0851313  15.1670113  11.1671673  74.7541313
  15.9230113  10.7351673  74.8121313  15.1820113  11.6991673  75.4451313
  15.2810113  11.1821673  74.8651313  16.1070113   9.3881673  82.7591313
  16.5380113   9.2591673  82.0121313  15.9020113  10.2361673  82.7331313
  16.1400113   9.4941673  82.6451313  22.4530113   2.9521673  76.4091313
  22.4510113   2.8351673  75.5441313  22.2720113   3.8001673  76.5011313
  22.4260113   3.0601673  76.2951313  31.5070113  15.3791673  87.9061313
  30.8360113  15.8931673  88.1241313  31.5700113  15.4791673  87.0421313
  31.4170113  15.4701673  87.8111313  20.1910113  12.9041673  81.0411313
  20.3170113  13.7471673  81.2281313  20.8590113  12.5051673  81.4371313
  20.3090113  12.9701673  81.1271313  18.8060113   5.7841673  76.0431313
  18.6780113   5.3361673  76.7811313  18.2240113   5.4421673  75.4911313
  18.7010113   5.6671673  76.0711313  18.9730113   7.6141673  82.6421313
  18.1920113   7.5551673  82.2591313  19.0450113   6.8621673  83.0791313
  18.8680113   7.4951673  82.6501313  19.4030113   7.3511673  86.1101313
  19.4280113   6.6761673  85.5591313  18.7570113   7.8471673  85.7981313
  19.3120113   7.3241673  85.9831313  29.2980113   5.0641673  84.5061313
  28.6360113   5.3921673  84.9691313  29.4850113   5.6981673  83.9371313
  29.2280113   5.2061673  84.4901313  23.5030113  16.1281673  85.5021313
  23.2260113  15.4871673  84.9791313  23.2950113  16.8541673  85.0641313
  23.4320113  16.1411673  85.3601313  27.4910113   3.0331673  78.0171313
  27.9810113   3.7501673  77.9401313  26.7010113   3.2941673  77.7541313
  27.4470113   3.1771673  77.9671313  24.0730113   4.5031673  83.7421313
  24.5530113   5.2021673  83.9501313  24.4460113   3.8561673  84.1931313
  24.1990113   4.5111673  83.8391313  26.2620113   7.6721673  76.0161313
  26.2540113   8.3941673  75.5261313  25.6230113   7.8071673  76.5931313
  26.1670113   7.7991673  76.0291313  31.2340113  11.5421673  79.9971313
  31.5900113  11.1921673  80.7121313  31.2260113  10.8811673  79.4271313
  31.2860113  11.3921673  80.0181313  27.2790113  14.6081673  83.8411313
  26.6760113  14.3121673  83.2841313  27.8240113  15.0601673  83.3321313
  27.2700113  14.6311673  83.6831313  27.2920113  11.4591673  83.2411313
  26.4950113  11.6831673  83.5151313  27.5500113  10.8651673  83.8261313
  27.2120113  11.4041673  83.3681313  21.1840113  16.2711673  77.6891313
  21.0370113  15.4951673  78.0601313  21.8730113  16.1241673  77.1741313
  21.2640113  16.1341673  77.6681313  23.4760113  15.7871673  76.0911313
  24.0980113  15.9501673  76.6811313  23.5120113  16.4781673  75.5591313
  23.5730113  15.9131673  76.1001313  30.5520113   9.4571673  88.0871313
  30.6070113   9.5821673  87.2251313  31.3050113   9.7771673  88.3891313
  30.6710113   9.5221673  88.0041313  17.9770113   8.3211673  76.9201313
  18.3010113   7.5421673  76.6981313  18.6230113   8.6891673  77.3751313
  18.1200113   8.2601673  76.9541313  26.2830113   9.2631673  87.6871313
  26.1280113   9.8731673  88.2911313  26.8170113   8.7051673  88.0931313
  26.3390113   9.2711673  87.8361313  24.6670113   7.6631673  78.3451313
  24.7260113   8.3131673  78.9241313  24.4780113   6.9671673  78.8361313
  24.6480113   7.6561673  78.5031313  29.8930113  11.9921673  84.2141313
  29.4140113  12.2901673  83.5481313  29.5370113  11.2161673  84.3921313
  29.7700113  11.9211673  84.1421313  19.1630113   2.1801673  74.8571313
  18.6520113   2.2331673  74.1511313  19.9470113   2.4201673  74.5611313
  19.2030113   2.2231673  74.7091313  23.8900113   9.7101673  82.7761313
  23.0430113   9.5161673  82.8571313  24.2140113   9.5451673  83.5691313
  23.8120113   9.6571673  82.9051313  20.6420113  16.4401673  73.6621313
  21.0810113  15.7431673  73.9501313  20.8490113  17.0641673  74.2351313
  20.7380113  16.4291673  73.7891313  17.7380113   9.4031673  85.0921313
  18.4600113   9.8911673  85.0551313  17.4680113   9.3731673  84.2631313
  17.8050113   9.4711673  84.9641313  20.9680113   4.5741673  81.8271313
  21.8140113   4.3841673  81.9251313  20.5980113   3.7971673  81.6891313
  21.0380113   4.4311673  81.8211313  33.5850113  16.1581673  76.1541313
  34.2790113  15.6911673  75.9061313  33.0460113  15.5601673  76.4911313
  33.6080113  16.0001673  76.1671313  15.7890113   5.9121673  78.4821313
  16.2780113   5.6201673  79.1431313  15.9180113   5.3191673  77.8551313
  15.8800113   5.7811673  78.4871313  30.8240113   8.9341673  85.3331313
  30.8170113   8.1581673  85.7311313  29.9830113   9.1681673  85.3261313
  30.6990113   8.8541673  85.3911313  20.3140113   7.3461673  73.9681313
  19.7040113   6.9411673  74.4421313  19.9280113   7.4641673  73.1951313
  20.1670113   7.3031673  73.9241313  32.0800113   9.0051673  82.7701313
  31.7940113   9.4061673  83.4901313  32.9400113   8.9431673  82.8971313
  32.1650113   9.0551673  82.8951313  21.7690113   5.8071673  76.6781313
  22.0410113   6.6331673  76.7451313  20.9060113   5.8821673  76.5821313
  21.6820113   5.9401673  76.6731313  15.2490113   1.7771673  83.2141313
  15.2930113   2.1211673  82.4131313  16.0040113   2.0141673  83.5811313
  15.3670113   1.8631673  83.1501313  33.2110113  14.6381673  83.2991313
  33.5010113  14.8951673  82.5181313  33.9060113  14.7341673  83.8181313
  33.3570113  14.6901673  83.2601313  29.8160113  13.2411673  75.2811313
  30.1500113  12.4351673  75.3161313  29.0610113  13.1691673  75.7111313
  29.7540113  13.1111673  75.3501313  30.2980113   5.0751673  80.9401313
  29.5530113   4.7521673  81.2581313  30.3000113   5.9011673  81.2201313
  30.1880113   5.1491673  81.0281313  32.7380113  11.0351673  88.6921313
  33.3660113  10.4861673  88.4361313  32.6770113  11.6001673  88.0301313
  32.8220113  11.0381673  88.5561313  27.1900113  11.1161673  74.6841313
  27.8740113  10.6021673  74.5151313  26.7730113  11.1621673  73.9191313
  27.2290113  11.0471673  74.5461313  21.8720113  12.2661673  85.9881313
  21.5740113  12.8581673  86.5551313  21.9270113  12.7081673  85.2391313
  21.8360113  12.4191673  85.9611313  24.3880113   8.6891673  85.4791313
  24.8640113   9.0631673  86.1071313  23.5650113   8.8231673  85.7381313
  24.3370113   8.7641673  85.6101313  21.0980113   4.2921673  88.2201313
  21.2590113   3.5481673  88.6471313  21.0530113   4.0431673  87.3851313
  21.1150113   4.1451673  88.1601313  23.6520113  16.0821673  80.7071313
  24.1980113  16.7611673  80.7611313  23.3020113  16.1641673  79.9121313
  23.6810113  16.1951673  80.5971313  21.8350113  14.3101673  84.0961313
  21.2110113  14.8921673  83.9141313  22.0830113  14.0241673  83.3101313
  21.7790113  14.3541673  83.9531313  31.9160113   5.6401673  74.9281313
  32.2940113   6.3171673  74.5281313  31.0740113   5.8641673  74.9591313
  31.8470113   5.7731673  74.8731313  23.4290113   9.0861673  74.0111313
  22.6240113   8.9091673  73.7261313  23.3960113   9.9371673  74.2031313
  23.3050113   9.1851673  73.9981313  19.3590113   5.1531673  84.1611313
  19.7990113   5.0501673  83.4151313  19.9040113   4.8401673  84.7661313
  19.5040113   5.0921673  84.1401313  27.0630113   5.7921673  86.0511313
  27.3650113   6.2121673  86.7541313  27.0990113   4.9521673  86.2831313
  27.1130113   5.7301673  86.1891313  29.6110113   5.2391673  78.3031313
  29.8180113   5.0381673  79.1271313  30.3670113   5.5071673  77.9611313
  29.7530113   5.2491673  78.3741313  31.0760113   9.2661673  78.1571313
  31.5520113   8.5371673  78.1091313  30.2550113   8.9801673  78.0811313
  31.0250113   9.1161673  78.1381313  20.3770113  17.3851673  84.3131313
  20.3880113  17.4441673  85.1831313  19.9520113  16.6381673  84.1631313
  20.3160113  17.2831673  84.4191313  18.5350113   3.2801673  77.4681313
  18.6610113   2.9511673  76.6701313  17.7230113   3.0311673  77.6671313
  18.4340113   3.1951673  77.3801313  27.2920113  10.4331673  80.5121313
  27.3680113  10.7741673  81.3111313  27.4610113   9.5861673  80.6331313
  27.3280113  10.3581673  80.6481313  24.8140113   9.7071673  80.0771313
  24.5160113   9.3921673  80.8341313  25.5090113  10.1801673  80.3121313
  24.8730113   9.7301673  80.2241313  25.0360113  13.8251673  88.1041313
  25.7230113  13.7111673  88.6291313  25.1700113  14.6161673  87.7601313
  25.1570113  13.9251673  88.1311313  27.7250113   7.0991673  88.4911313
  27.4700113   6.3801673  88.9131313  28.5460113   7.2151673  88.7611313
  27.8090113   7.0101673  88.5931313  28.7430113  16.6631673  82.6071313
  28.2920113  17.3061673  82.9861313  29.4510113  16.5841673  83.1121313
  28.7810113  16.7461673  82.7381313  25.4440113  11.7531673  85.5371313
  24.7500113  12.1551673  85.8801313  26.1210113  12.1861673  85.8761313
  25.4410113  11.8761673  85.6381313  18.5120113   5.2911673  87.8841313
  18.8870113   5.9101673  87.3971313  19.1860113   4.8171673  88.1691313
  18.6670113   5.3131673  87.8541313  16.2870113   3.7391673  87.1591313
  16.3640113   3.5701673  86.3061313  17.0330113   4.1451673  87.3561313
  16.4080113   3.7741673  87.0621313  31.8460113   6.3791673  77.5991313
  31.9490113   6.3211673  76.7351313  32.5870113   6.0471673  77.9171313
  31.9710113   6.3221673  77.5181313  25.7660113  13.3441673  78.7061313
  25.5610113  14.1771673  78.5471313  24.9910113  12.9621673  78.8281313
  25.6210113  13.4111673  78.7011313  30.9480113   6.5251673  86.9551313
  30.9460113   5.6621673  87.0791313  31.0150113   6.8491673  87.7621313
  30.9580113   6.4451673  87.0921313  15.6840113   8.9651673  87.3831313
  16.0040113   9.1841673  86.6021313  15.5840113   8.1001673  87.3281313
  15.7160113   8.8701673  87.2601313  17.1400113   4.9011673  74.0011313
  16.4680113   4.9151673  74.5571313  17.2350113   4.0531673  73.8171313
  17.0550113   4.7781673  74.0561313  21.1280113  13.6061673  75.1151313
  21.5690113  13.6861673  75.8631313  20.3230113  13.3901673  75.3731313
  21.0740113  13.5861673  75.2641313  29.4190113   2.0311673  84.3911313
  30.2740113   2.1301673  84.5361313  29.0500113   2.5841673  84.9561313
  29.4910113   2.1281673  84.4961313  20.4470113   8.2571673  88.7681313
  20.0510113   9.0311673  88.8431313  20.0410113   7.8841673  88.0921313
  20.3290113   8.3161673  88.6791313  29.7230113   7.3111673  82.8821313
  30.3890113   7.8521673  83.0421313  29.3780113   7.6221673  82.1431313
  29.7700113   7.4371673  82.7971313  30.0360113  15.3771673  78.6891313
  29.8620113  14.7231673  79.2391313  30.7490113  15.1061673  78.2661313
  30.1160113  15.2401673  78.7081313  18.4570113  12.6761673  75.7161313
  18.2130113  12.3691673  76.4961313  18.4240113  11.9731673  75.2001313
  18.4160113  12.5271673  75.7551313  21.2760113  10.9211673  74.4591313
  20.4580113  10.6531673  74.5991313  21.2480113  11.7731673  74.6441313
  21.1510113  11.0081673  74.5071313  27.7110113  12.8301673  86.3801313
  27.9170113  13.1311673  87.1721313  27.6500113  13.5521673  85.8951313
  27.7320113  12.9811673  86.4251313  32.5230113  11.4691673  85.8381313
  32.4910113  10.6071673  85.7031313  31.8300113  11.7711673  85.4041313
  32.4160113  11.3861673  85.7541313  30.6280113  14.7291673  84.6351313
  31.1550113  14.6461673  83.9441313  30.2370113  13.9511673  84.6891313
  30.6480113  14.6021673  84.5411313  26.5010113   5.9811673  81.3361313
  27.0520113   5.3741673  81.6361313  26.0760113   6.2441673  82.0511313
  26.5200113   5.9301673  81.4851313  16.7490113   4.6311673  80.8221313
  16.3810113   4.9331673  81.5531313  17.2830113   4.0021673  81.1061313
  16.7730113   4.5831673  80.9721313  16.4370113  13.0391673  88.3331313
  15.8630113  13.4551673  88.8421313  17.1700113  13.5041673  88.4281313
  16.4610113  13.1691673  88.4221313  28.4710113   7.8121673  77.8981313
  28.5390113   6.9621673  78.0791313  27.6480113   7.8981673  77.6201313
  28.3590113   7.6991673  77.8841313  18.2230113  16.3061673  77.1081313
  18.0780113  16.4621673  76.2621313  19.0890113  16.3851673  77.1861313
  18.3300113  16.3411673  76.9951313  22.3900113   8.7031673  76.8361313
  22.4900113   8.8421673  75.9811313  23.2080113   8.6431673  77.1321313
  22.5250113   8.7141673  76.7531313  31.5500113  16.7671673  74.3161313
  32.1870113  16.6331673  74.8971313  31.2090113  15.9731673  74.1991313
  31.5940113  16.6301673  74.3841313  27.6250113  13.0321673  76.6381313
  27.3740113  12.9041673  77.4641313  27.3080113  12.3371673  76.2171313
  27.5410113  12.9111673  76.6981313  32.2690113   4.6901673  84.7581313
  31.4360113   4.9401673  84.6861313  32.2130113   3.8501673  84.9871313
  32.1380113   4.6031673  84.7811313  18.9100113  15.1211673  83.5851313
  18.8310113  14.3111673  83.2691313  18.4660113  15.6081673  83.0131313
  18.8330113  15.0731673  83.4541313  24.5110113  11.2401673  76.0681313
  25.2280113  10.8931673  75.7121313  24.4770113  12.0401673  75.7201313
  24.6120113  11.3071673  75.9641313  16.4820113  17.3651673  87.1661313
  16.9750113  17.3091673  87.8841313  16.6700113  16.6321673  86.7311313
  16.5830113  17.2481673  87.2081313  25.7290113   6.7971673  64.9778903
  25.2050113   7.3931673  65.3408903  26.1260113   6.4291673  65.6618903
  25.7100113   6.8311673  65.1328903  15.5980113  10.9371673  60.4338903
  15.1570113  11.0551673  61.1768903  15.3150113  10.1621673  60.1488903
  15.4910113  10.8401673  60.5018903  31.8730113  14.2381673  57.9488903
  32.5740113  13.7191673  57.9448903  31.2860113  13.7931673  57.4798903
  31.8900113  14.0951673  57.8788903  15.3410113   4.7291673  56.9408903
  14.5630113   4.8911673  56.5808903  15.3800113   3.8581673  56.9628903
  15.2320113   4.6241673  56.8908903  18.4800113   9.9921673  55.6128903
  18.0880113   9.6211673  54.9268903  18.4000113   9.3941673  56.2418903
  18.4100113   9.8491673  55.6038903  28.4000113   7.8641673  61.6538903
  28.4800113   7.8681673  60.7848903  27.8160113   7.2321673  61.8028903
  28.3250113   7.7711673  61.5478903  18.1070113  11.6331673  59.5128903
  18.7150113  11.4631673  60.1158903  17.3560113  11.4931673  59.9338903
  18.0860113  11.5871673  59.6638903  16.9980113  14.7241673  55.5898903
  17.4650113  14.8081673  54.8578903  17.4530113  14.1461673  56.0588903
  17.1340113  14.6511673  55.5508903  15.5380113  13.6721673  66.6888903
  15.6670113  13.3921673  67.5048903  14.9280113  13.1311673  66.3798903
  15.4670113  13.5511673  66.7638903  22.1120113  11.1971673  71.7558903
  21.8760113  11.1941673  72.5958903  21.3640113  11.0491673  71.3318903
  21.9660113  11.1741673  71.8168903  16.9840113   8.1931673  60.8908903
  16.5220113   7.8011673  60.2638903  17.6840113   7.6801673  60.9828903
  17.0190113   8.0601673  60.8118903  21.4920113   3.8031673  66.2378903
  22.1700113   3.8211673  65.6888903  21.4470113   2.9671673  66.4828903
  21.5850113   3.6821673  66.1928903  22.0940113  14.3891673  69.0188903
  22.2320113  15.1491673  68.6118903  22.8850113  14.0241673  69.0458903
  22.2310113  14.4481673  68.9628903  18.9850113   6.2931673  60.9138903
  19.8020113   6.1061673  61.1568903  18.5080113   5.6791673  61.3098903
  19.0350113   6.1751673  61.0088903  23.1890113  12.2741673  63.5238903
  23.5370113  11.4751673  63.5538903  23.8540113  12.7781673  63.2688903
  23.3390113  12.2301673  63.4908903  23.2460113  11.7231673  59.7348903
  23.5770113  11.0791673  60.2208903  23.4860113  11.5121673  58.9238903
  23.3300113  11.5971673  59.6868903  25.2140113   5.8541673  71.0738903
  24.3660113   5.7551673  70.8958903  25.2430113   6.5991673  71.5278903
  25.0930113   5.9501673  71.1148903  27.2340113   3.4551673  54.7018903
  26.7840113   4.1361673  55.0088903  27.3480113   2.9511673  55.4048903
  27.1850113   3.4811673  54.8508903  15.4400113   5.9541673  63.9038903
  15.1840113   6.7851673  63.8288903  14.7760113   5.5711673  64.3208903
  15.3040113   6.0201673  63.9548903  15.3500113  15.6641673  61.8038903
  14.7580113  16.2221673  61.4908903  15.7760113  15.3951673  61.0918903
  15.3260113  15.7061673  61.6528903  21.1900113  13.5081673  59.2838903
  20.6110113  13.2331673  59.8758903  21.8140113  12.8991673  59.3088903
  21.1970113  13.3781673  59.3748903  27.3330113  15.7961673  56.8058903
  28.0600113  16.2681673  56.9078903  27.5620113  15.0021673  57.0858903
  27.4750113  15.7491673  56.8628903  25.5010113  16.1881673  58.7958903
  25.7150113  16.7151673  59.4578903  26.2680113  16.0141673  58.4168903
  25.6460113  16.2401673  58.8378903  21.7750113   2.9041673  73.6928903
  21.8920113   2.4501673  72.9568903  22.0630113   3.7021673  73.4898903
  21.8350113   2.9551673  73.5538903  16.8950113  14.3341673  59.7348903
  17.5510113  13.7591673  59.7498903  17.2840113  15.0831673  59.5138903
  17.0500113  14.3591673  59.7048903  32.6280113   3.4281673  60.9968903
  32.2820113   4.1061673  61.4228903  31.9920113   2.8301673  61.0128903
  32.4830113   3.4401673  61.0618903  27.9400113  16.1981673  67.1008903
  28.6840113  16.6541673  67.0908903  27.8190113  15.9841673  66.2638903
  28.0320113  16.2341673  66.9758903  17.5080113   2.5011673  72.6768903
  16.7300113   2.1111673  72.6048903  17.9990113   2.0891673  72.0858903
  17.4650113   2.3821673  72.5788903  17.7130113  12.8211673  63.2348903
  18.1360113  12.4651673  62.5608903  18.0370113  12.3991673  63.9268903
  17.8230113  12.7061673  63.2378903  20.9440113  15.6731673  62.5308903
  21.7880113  15.7771673  62.3358903  20.6470113  16.4911673  62.5988903
  21.0250113  15.8091673  62.5118903  24.7510113   5.0701673  60.6178903
  25.0380113   4.8381673  59.8278903  25.4830113   5.1491673  61.0868903
  24.9010113   5.0471673  60.5708903  25.4730113   5.4091673  55.7388903
  25.7540113   6.1971673  55.9878903  24.6970113   5.5741673  55.3758903
  25.4000113   5.5501673  55.7218903  29.5140113  17.3831673  57.2058903
  30.1790113  17.2351673  56.6608903  29.8740113  17.3001673  57.9958903
  29.6660113  17.3491673  57.2418903  19.9420113  16.8921673  68.2708903
  20.2340113  16.8251673  69.0908903  19.3160113  16.2871673  68.2258903
  19.8930113  16.7931673  68.3858903  14.8560113   3.0491673  70.2628903
  14.8520113   3.6361673  70.9088903  15.4500113   3.3611673  69.7058903
  14.9430113   3.1821673  70.2758903  27.1940113  13.3831673  70.8048903
  27.1600113  13.7651673  71.5888903  28.0480113  13.3411673  70.6338903
  27.3150113  13.4331673  70.8958903  24.3320113  13.5801673  55.5548903
  24.1510113  14.1251673  56.2118903  25.0980113  13.8701673  55.2538903
  24.4180113  13.7041673  55.6078903  15.7930113   2.6441673  59.1778903
  15.6790113   1.7801673  59.2088903  15.3180113   2.9381673  59.8478903
  15.7060113   2.5601673  59.2808903  17.9350113  15.0541673  67.3928903
  17.2370113  14.5461673  67.5188903  18.1950113  14.8491673  66.5848903
  17.8700113  14.9491673  67.2918903  25.0970113   3.8521673  57.9228903
  24.5890113   3.1901673  57.6688903  25.1490113   4.3561673  57.2128903
  25.0300113   3.8291673  57.7808903  25.6460113  16.5471673  68.3028903
  26.4140113  16.4671673  67.8968903  25.0630113  16.4261673  67.6648903
  25.6730113  16.5171673  68.1488903  31.9230113  17.1501673  61.2038903
  31.4680113  17.8671673  61.4048903  31.3090113  16.5791673  60.9618903
  31.7650113  17.1721673  61.1978903  23.6950113   3.1601673  62.3358903
  23.7690113   3.7281673  61.6778903  23.8160113   3.6521673  63.0458903
  23.7230113   3.3171673  62.3438903  28.9200113  12.9951673  60.7478903
  29.6210113  12.5131673  60.9368903  28.2600113  12.4261673  60.7928903
  28.9260113  12.8401673  60.7818903  19.2960113  13.9051673  69.9598903
  20.1370113  13.9681673  69.7378903  19.2590113  14.3021673  70.7358903
  19.4150113  13.9731673  70.0418903  21.2590113   9.4161673  64.7088903
  21.4310113   9.2061673  65.5378903  20.6040113   8.8821673  64.4928903
  21.1880113   9.3061673  64.7998903  27.4870113   3.3301673  68.2238903
  27.3920113   3.6491673  69.0298903  26.8940113   2.6911673  68.1858903
  27.3850113   3.2821673  68.3378903  22.0090113   9.3541673  67.2988903
  22.0620113  10.2011673  67.5008903  21.7240113   8.9841673  68.0358903
  21.9750113   9.4241673  67.4368903  28.1860113  10.0491673  66.4288903
  27.6720113   9.6371673  66.9998903  28.0600113  10.8931673  66.6098903
  28.0920113  10.1131673  66.5398903  14.8300113  13.7251673  73.5098903
  15.5860113  14.0741673  73.7678903  15.0070113  12.8721673  73.4528903
  14.9680113  13.6501673  73.5398903  31.2070113   3.5101673  69.3678903
  31.9790113   3.2851673  69.7048903  30.7320113   3.7271673  70.0678903
  31.2510113   3.5091673  69.5208903  18.7510113   2.7931673  62.3378903
  19.0230113   2.3631673  61.6298903  18.5750113   2.1571673  62.9088903
  18.7650113   2.6361673  62.3178903  31.4390113  10.4881673  56.5558903
  31.5580113  10.2011673  57.3708903  32.2460113  10.5091673  56.2258903
  31.5750113  10.4491673  56.6278903  18.5750113  10.2201673  61.8868903
  19.4260113  10.1401673  61.7138903  18.2180113   9.5381673  61.4748903
  18.6480113  10.1071673  61.7998903  17.3420113  16.9451673  63.1238903
  16.6690113  16.4471673  62.8788903  17.7450113  17.1301673  62.3728903
  17.3020113  16.8991673  62.9768903  16.8920113   3.8951673  65.4198903
  17.7350113   4.1151673  65.3768903  16.5030113   4.4681673  64.8888903
  16.9590113   4.0121673  65.3348903  33.6730113  14.9971673  70.8098903
  32.9910113  15.3071673  70.3628903  33.3040113  14.5391673  71.4548903
  33.5170113  14.9751673  70.8388903  29.3340113   7.0251673  56.1408903
  29.1140113   7.7561673  55.7188903  28.8860113   7.0761673  56.8878903
  29.2350113   7.1401673  56.1888903  20.9430113  10.2271673  60.1218903
  21.6560113  10.7221673  60.2118903  21.1650113   9.6601673  59.4958903
  21.0810113  10.2161673  60.0428903  15.0990113  11.8701673  63.4418903
  14.4320113  12.3581673  63.7178903  15.7790113  12.4151673  63.4708903
  15.1010113  12.0221673  63.4868903  22.7460113   5.5801673  73.5378903
  22.2620113   6.1571673  73.9798903  22.7180113   5.8751673  72.7168903
  22.6700113   5.7091673  73.4818903  33.8440113   6.2641673  68.1498903
  34.0590113   5.4641673  67.8738903  32.9940113   6.3241673  67.9608903
  33.7500113   6.1551673  68.0808903  15.1650113   8.5541673  58.5448903
  14.9800113   7.7151673  58.6968903  15.8240113   8.5181673  57.9748903
  15.2350113   8.4251673  58.4828903  25.4660113  13.9301673  62.4488903
  24.9430113  14.5641673  62.1558903  25.7760113  13.5661673  61.7198903
  25.4340113  13.9701673  62.2978903  15.3370113  12.7181673  58.1198903
  15.8890113  13.2871673  58.4838903  15.1050113  12.2031673  58.7848903
  15.3840113  12.7261673  58.2718903  19.5410113  11.7181673  65.2088903
  20.0080113  12.0071673  65.8868903  20.1130113  11.2401673  64.7548903
  19.6950113  11.6901673  65.2418903  27.9770113   3.7321673  62.9458903
  28.3210113   3.8841673  63.7328903  27.5240113   2.9941673  63.0588903
  27.9610113   3.6451673  63.0788903  15.1670113  11.1671673  55.7478903
  15.9230113  10.7351673  55.8058903  15.1820113  11.6991673  56.4388903
  15.2810113  11.1821673  55.8588903  16.1070113   9.3881673  63.7528903
  16.5380113   9.2591673  63.0058903  15.9020113  10.2361673  63.7268903
  16.1400113   9.4941673  63.6388903  22.4530113   2.9521673  57.4028903
  22.4510113   2.8351673  56.5378903  22.2720113   3.8001673  57.4948903
  22.4260113   3.0601673  57.2888903  31.5070113  15.3791673  68.8998903
  30.8360113  15.8931673  69.1178903  31.5700113  15.4791673  68.0358903
  31.4170113  15.4701673  68.8048903  20.1910113  12.9041673  62.0348903
  20.3170113  13.7471673  62.2218903  20.8590113  12.5051673  62.4308903
  20.3090113  12.9701673  62.1208903  18.3210113   6.3871673  71.8968903
  17.7850113   5.8811673  72.3648903  18.3410113   5.9971673  71.1168903
  18.2440113   6.2541673  71.8508903  18.8060113   5.7841673  57.0368903
  18.6780113   5.3361673  57.7748903  18.2240113   5.4421673  56.4848903
  18.7010113   5.6671673  57.0648903  18.9730113   7.6141673  63.6358903
  18.1920113   7.5551673  63.2528903  19.0450113   6.8621673  64.0728903
  18.8680113   7.4951673  63.6438903  19.4030113   7.3511673  67.1038903
  19.4280113   6.6761673  66.5528903  18.7570113   7.8471673  66.7918903
  19.3120113   7.3241673  66.9768903  29.2980113   5.0641673  65.4998903
  28.6360113   5.3921673  65.9628903  29.4850113   5.6981673  64.9308903
  29.2280113   5.2061673  65.4838903  23.5030113  16.1281673  66.4958903
  23.2260113  15.4871673  65.9728903  23.2950113  16.8541673  66.0578903
  23.4320113  16.1411673  66.3538903  27.4910113   3.0331673  59.0108903
  27.9810113   3.7501673  58.9338903  26.7010113   3.2941673  58.7478903
  27.4470113   3.1771673  58.9608903  17.2020113   8.7061673  72.6628903
  17.1650113   9.2071673  71.9488903  17.5330113   7.9541673  72.3678903
  17.2450113   8.6681673  72.5138903  28.8050113  10.9111673  70.9208903
  29.2890113  11.6291673  71.0188903  29.1990113  10.4841673  70.2698903
  28.9350113  10.9541673  70.8388903  23.1010113  13.7561673  72.0978903
  23.4550113  13.5781673  72.8748903  22.6650113  13.0271673  71.8988903
  23.0890113  13.6221673  72.1838903  24.0730113   4.5031673  64.7358903
  24.5530113   5.2021673  64.9438903  24.4460113   3.8561673  65.1868903
  24.1990113   4.5111673  64.8328903  26.2620113   7.6721673  57.0098903
  26.2540113   8.3941673  56.5198903  25.6230113   7.8071673  57.5868903
  26.1670113   7.7991673  57.0228903  31.2340113  11.5421673  60.9908903
  31.5900113  11.1921673  61.7058903  31.2260113  10.8811673  60.4208903
  31.2860113  11.3921673  61.0118903  27.2790113  14.6081673  64.8348903
  26.6760113  14.3121673  64.2778903  27.8240113  15.0601673  64.3258903
  27.2700113  14.6311673  64.6768903  27.2920113  11.4591673  64.2348903
  26.4950113  11.6831673  64.5088903  27.5500113  10.8651673  64.8198903
  27.2120113  11.4041673  64.3618903  21.1840113  16.2711673  58.6828903
  21.0370113  15.4951673  59.0538903  21.8730113  16.1241673  58.1678903
  21.2640113  16.1341673  58.6618903  23.4760113  15.7871673  57.0848903
  24.0980113  15.9501673  57.6748903  23.5120113  16.4781673  56.5528903
  23.5730113  15.9131673  57.0938903  30.5520113   9.4571673  69.0808903
  30.6070113   9.5821673  68.2188903  31.3050113   9.7771673  69.3828903
  30.6710113   9.5221673  68.9978903  26.7430113  14.8061673  73.3578903
  26.9070113  15.0891673  74.1668903  27.0060113  15.4671673  72.8528903
  26.8060113  14.9461673  73.4028903  17.9770113   8.3211673  57.9138903
  18.3010113   7.5421673  57.6918903  18.6230113   8.6891673  58.3688903
  18.1200113   8.2601673  57.9478903  26.2830113   9.2631673  68.6808903
  26.1280113   9.8731673  69.2848903  26.8170113   8.7051673  69.0868903
  26.3390113   9.2711673  68.8298903  24.6670113   7.6631673  59.3388903
  24.7260113   8.3131673  59.9178903  24.4780113   6.9671673  59.8298903
  24.6480113   7.6561673  59.4968903  29.8930113  11.9921673  65.2078903
  29.4140113  12.2901673  64.5418903  29.5370113  11.2161673  65.3858903
  29.7700113  11.9211673  65.1358903  19.1630113   2.1801673  55.8508903
  18.6520113   2.2331673  55.1448903  19.9470113   2.4201673  55.5548903
  19.2030113   2.2231673  55.7028903  23.8900113   9.7101673  63.7698903
  23.0430113   9.5161673  63.8508903  24.2140113   9.5451673  64.5628903
  23.8120113   9.6571673  63.8988903  20.6420113  16.4401673  54.6558903
  21.0810113  15.7431673  54.9438903  20.8490113  17.0641673  55.2288903
  20.7380113  16.4291673  54.7828903  17.7380113   9.4031673  66.0858903
  18.4600113   9.8911673  66.0488903  17.4680113   9.3731673  65.2568903
  17.8050113   9.4711673  65.9578903  20.9680113   4.5741673  62.8208903
  21.8140113   4.3841673  62.9188903  20.5980113   3.7971673  62.6828903
  21.0380113   4.4311673  62.8148903  33.5850113  16.1581673  57.1478903
  34.2790113  15.6911673  56.8998903  33.0460113  15.5601673  57.4848903
  33.6080113  16.0001673  57.1608903  15.7890113   5.9121673  59.4758903
  16.2780113   5.6201673  60.1368903  15.9180113   5.3191673  58.8488903
  15.8800113   5.7811673  59.4808903  30.8240113   8.9341673  66.3268903
  30.8170113   8.1581673  66.7248903  29.9830113   9.1681673  66.3198903
  30.6990113   8.8541673  66.3848903  20.3140113   7.3461673  54.9618903
  19.7040113   6.9411673  55.4358903  19.9280113   7.4641673  54.1888903
  20.1670113   7.3031673  54.9178903  17.1330113  10.4551673  70.3638903
  16.7120113   9.9371673  69.8028903  16.7810113  11.2411673  70.2208903
  17.0190113  10.4951673  70.2598903  32.0800113   9.0051673  63.7638903
  31.7940113   9.4061673  64.4838903  32.9400113   8.9431673  63.8908903
  32.1650113   9.0551673  63.8888903  21.7690113   5.8071673  57.6718903
  22.0410113   6.6331673  57.7388903  20.9060113   5.8821673  57.5758903
  21.6820113   5.9401673  57.6668903  29.7420113   2.9291673  72.3038903
  29.2170113   3.3881673  72.8278903  29.3810113   2.1341673  72.2978903
  29.6110113   2.8791673  72.3798903  15.2490113   1.7771673  64.2078903
  15.2930113   2.1211673  63.4068903  16.0040113   2.0141673  64.5748903
  15.3670113   1.8631673  64.1438903  33.2110113  14.6381673  64.2928903
  33.5010113  14.8951673  63.5118903  33.9060113  14.7341673  64.8118903
  33.3570113  14.6901673  64.2538903  28.2340113   6.4981673  72.3798903
  28.3070113   6.6021673  73.2428903  27.6000113   7.0561673  72.1588903
  28.1510113   6.5961673  72.4748903  30.5020113   6.8171673  70.7448903
  30.8210113   7.6031673  70.9478903  30.1320113   6.5471673  71.4878903
  30.4950113   6.8931673  70.8848903  29.8160113  13.2411673  56.2748903
  30.1500113  12.4351673  56.3098903  29.0610113  13.1691673  56.7048903
  29.7540113  13.1111673  56.3438903  30.2980113   5.0751673  61.9338903
  29.5530113   4.7521673  62.2518903  30.3000113   5.9011673  62.2138903
  30.1880113   5.1491673  62.0218903  33.2000113   7.3591673  73.4798903
  33.1480113   7.0181673  72.6788903  33.9370113   7.8261673  73.4578903
  33.3010113   7.3781673  73.3578903  32.7380113  11.0351673  69.6858903
  33.3660113  10.4861673  69.4298903  32.6770113  11.6001673  69.0238903
  32.8220113  11.0381673  69.5498903  27.1900113  11.1161673  55.6778903
  27.8740113  10.6021673  55.5088903  26.7730113  11.1621673  54.9128903
  27.2290113  11.0471673  55.5398903  21.8720113  12.2661673  66.9818903
  21.5740113  12.8581673  67.5488903  21.9270113  12.7081673  66.2328903
  21.8360113  12.4191673  66.9548903  19.8510113  11.2161673  70.3798903
  19.0450113  10.9261673  70.5468903  19.7620113  12.0841673  70.3858903
  19.7190113  11.3011673  70.4048903  24.3880113   8.6891673  66.4728903
  24.8640113   9.0631673  67.1008903  23.5650113   8.8231673  66.7318903
  24.3370113   8.7641673  66.6038903  21.0980113   4.2921673  69.2138903
  21.2590113   3.5481673  69.6408903  21.0530113   4.0431673  68.3788903
  21.1150113   4.1451673  69.1538903  23.6520113  16.0821673  61.7008903
  24.1980113  16.7611673  61.7548903  23.3020113  16.1641673  60.9058903
  23.6810113  16.1951673  61.5908903  21.8350113  14.3101673  65.0898903
  21.2110113  14.8921673  64.9078903  22.0830113  14.0241673  64.3038903
  21.7790113  14.3541673  64.9468903  26.1440113  10.9441673  72.0788903
  26.9010113  11.2301673  71.7528903  25.5970113  10.9961673  71.4008903
  26.1750113  10.9941673  71.9298903  30.0530113  13.4941673  70.5828903
  30.3990113  13.7641673  71.3368903  30.3470113  14.0761673  70.0028903
  30.1480113  13.6201673  70.6088903  31.9160113   5.6401673  55.9218903
  32.2940113   6.3171673  55.5218903  31.0740113   5.8641673  55.9528903
  31.8470113   5.7731673  55.8668903  23.4290113   9.0861673  55.0048903
  22.6240113   8.9091673  54.7198903  23.3960113   9.9371673  55.1968903
  23.3050113   9.1851673  54.9918903  19.3590113   5.1531673  65.1548903
  19.7990113   5.0501673  64.4088903  19.9040113   4.8401673  65.7598903
  19.5040113   5.0921673  65.1338903  27.3750113   4.2551673  70.7468903
  26.7270113   4.7251673  71.0948903  27.9400113   4.1661673  71.4058903
  27.3630113   4.3111673  70.8958903  27.0630113   5.7921673  67.0448903
  27.3650113   6.2121673  67.7478903  27.0990113   4.9521673  67.2768903
  27.1130113   5.7301673  67.1828903  24.4880113  15.9591673  70.9698903
  24.9660113  15.3591673  70.5538903  24.1370113  15.5161673  71.6348903
  24.5070113  15.8051673  71.0068903  29.6110113   5.2391673  59.2968903
  29.8180113   5.0381673  60.1208903  30.3670113   5.5071673  58.9548903
  29.7530113   5.2491673  59.3678903  31.0760113   9.2661673  59.1508903
  31.5520113   8.5371673  59.1028903  30.2550113   8.9801673  59.0748903
  31.0250113   9.1161673  59.1318903  24.5470113  11.1781673  69.9898903
  23.7520113  11.1141673  70.3408903  24.6180113  12.0251673  69.7948903
  24.4400113  11.2931673  70.0128903  20.3770113  17.3851673  65.3068903
  20.3880113  17.4441673  66.1768903  19.9520113  16.6381673  65.1568903
  20.3160113  17.2831673  65.4128903  18.5350113   3.2801673  58.4618903
  18.6610113   2.9511673  57.6638903  17.7230113   3.0311673  58.6608903
  18.4340113   3.1951673  58.3738903  27.2920113  10.4331673  61.5058903
  27.3680113  10.7741673  62.3048903  27.4610113   9.5861673  61.6268903
  27.3280113  10.3581673  61.6418903  24.8140113   9.7071673  61.0708903
  24.5160113   9.3921673  61.8278903  25.5090113  10.1801673  61.3058903
  24.8730113   9.7301673  61.2178903  25.0360113  13.8251673  69.0978903
  25.7230113  13.7111673  69.6228903  25.1700113  14.6161673  68.7538903
  25.1570113  13.9251673  69.1248903  33.2120113   6.4341673  70.9088903
  32.3570113   6.3121673  71.0348903  33.3650113   6.0391673  70.1458903
  33.1080113   6.3571673  70.8148903  27.7250113   7.0991673  69.4848903
  27.4700113   6.3801673  69.9068903  28.5460113   7.2151673  69.7548903
  27.8090113   7.0101673  69.5868903  17.1410113  16.8831673  70.7488903
  16.4870113  16.3141673  70.8468903  16.7660113  17.6561673  70.8998903
  16.9890113  16.9131673  70.7858903  25.6590113   8.2891673  72.6718903
  25.9820113   8.9751673  72.2398903  24.9550113   8.6121673  73.0738903
  25.6020113   8.4381673  72.6668903  28.7430113  16.6631673  63.6008903
  28.2920113  17.3061673  63.9798903  29.4510113  16.5841673  64.1058903
  28.7810113  16.7461673  63.7318903  25.4440113  11.7531673  66.5308903
  24.7500113  12.1551673  66.8738903  26.1210113  12.1861673  66.8698903
  25.4410113  11.8761673  66.6318903  30.8210113  14.3461673  73.1108903
  31.5970113  13.9561673  73.1938903  30.3520113  14.0101673  73.7658903
  30.8660113  14.2391673  73.2198903  18.5120113   5.2911673  68.8778903
  18.8870113   5.9101673  68.3908903  19.1860113   4.8171673  69.1628903
  18.6670113   5.3131673  68.8478903  16.2870113   3.7391673  68.1528903
  16.3640113   3.5701673  67.2998903  17.0330113   4.1451673  68.3498903
  16.4080113   3.7741673  68.0558903  31.8460113   6.3791673  58.5928903
  31.9490113   6.3211673  57.7288903  32.5870113   6.0471673  58.9108903
  31.9710113   6.3221673  58.5118903  25.7660113  13.3441673  59.6998903
  25.5610113  14.1771673  59.5408903  24.9910113  12.9621673  59.8218903
  25.6210113  13.4111673  59.6948903  30.9480113   6.5251673  67.9488903
  30.9460113   5.6621673  68.0728903  31.0150113   6.8491673  68.7558903
  30.9580113   6.4451673  68.0858903  15.6840113   8.9651673  68.3768903
  16.0040113   9.1841673  67.5958903  15.5840113   8.1001673  68.3218903
  15.7160113   8.8701673  68.2538903  17.1400113   4.9011673  54.9948903
  16.4680113   4.9151673  55.5508903  17.2350113   4.0531673  54.8108903
  17.0550113   4.7781673  55.0498903  21.1280113  13.6061673  56.1088903
  21.5690113  13.6861673  56.8568903  20.3230113  13.3901673  56.3668903
  21.0740113  13.5861673  56.2578903  29.4190113   2.0311673  65.3848903
  30.2740113   2.1301673  65.5298903  29.0500113   2.5841673  65.9498903
  29.4910113   2.1281673  65.4898903  20.4470113   8.2571673  69.7618903
  20.0510113   9.0311673  69.8368903  20.0410113   7.8841673  69.0858903
  20.3290113   8.3161673  69.6728903  29.7230113   7.3111673  63.8758903
  30.3890113   7.8521673  64.0358903  29.3780113   7.6221673  63.1368903
  29.7700113   7.4371673  63.7908903  30.0360113  15.3771673  59.6828903
  29.8620113  14.7231673  60.2328903  30.7490113  15.1061673  59.2598903
  30.1160113  15.2401673  59.7018903  18.4570113  12.6761673  56.7098903
  18.2130113  12.3691673  57.4898903  18.4240113  11.9731673  56.1938903
  18.4160113  12.5271673  56.7488903  21.2760113  10.9211673  55.4528903
  20.4580113  10.6531673  55.5928903  21.2480113  11.7731673  55.6378903
  21.1510113  11.0081673  55.5008903  27.7110113  12.8301673  67.3738903
  27.9170113  13.1311673  68.1658903  27.6500113  13.5521673  66.8888903
  27.7320113  12.9811673  67.4188903  27.2450113  17.0441673  71.6198903
  26.4920113  17.0261673  71.1788903  27.4130113  17.8961673  71.7038903
  27.1590113  17.1671673  71.5668903  22.4820113   6.3111673  70.7898903
  22.1600113   5.7351673  70.2198903  22.1230113   7.0661673  70.5438903
  22.3820113   6.3371673  70.6698903  32.5230113  11.4691673  66.8318903
  32.4910113  10.6071673  66.6968903  31.8300113  11.7711673  66.3978903
  32.4160113  11.3861673  66.7478903  20.9170113  16.6671673  71.0378903
  20.9580113  16.7931673  71.9008903  21.5680113  16.1071673  70.8818903
  21.0190113  16.6031673  71.1428903  30.6280113  14.7291673  65.6288903
  31.1550113  14.6461673  64.9378903  30.2370113  13.9511673  65.6828903
  30.6480113  14.6021673  65.5348903  18.5100113  15.0501673  72.3978903
  19.1050113  15.4811673  72.8698903  18.1460113  15.6741673  71.9088903
  18.5440113  15.2061673  72.3948903  26.5010113   5.9811673  62.3298903
  27.0520113   5.3741673  62.6298903  26.0760113   6.2441673  63.0448903
  26.5200113   5.9301673  62.4788903  16.7490113   4.6311673  61.8158903
  16.3810113   4.9331673  62.5468903  17.2830113   4.0021673  62.0998903
  16.7730113   4.5831673  61.9658903  16.4370113  13.0391673  69.3268903
  15.8630113  13.4551673  69.8358903  17.1700113  13.5041673  69.4218903
  16.4610113  13.1691673  69.4158903  28.4710113   7.8121673  58.8918903
  28.5390113   6.9621673  59.0728903  27.6480113   7.8981673  58.6138903
  28.3590113   7.6991673  58.8778903  18.2230113  16.3061673  58.1018903
  18.0780113  16.4621673  57.2558903  19.0890113  16.3851673  58.1798903
  18.3300113  16.3411673  57.9888903  22.3900113   8.7031673  57.8298903
  22.4900113   8.8421673  56.9748903  23.2080113   8.6431673  58.1258903
  22.5250113   8.7141673  57.7468903  31.5500113  16.7671673  55.3098903
  32.1870113  16.6331673  55.8908903  31.2090113  15.9731673  55.1928903
  31.5940113  16.6301673  55.3778903  31.7450113   9.1851673  72.0428903
  32.3790113   9.0151673  72.6168903  32.1620113   9.5881673  71.3908903
  31.9000113   9.2201673  72.0318903  27.6250113  13.0321673  57.6318903
  27.3740113  12.9041673  58.4578903  27.3080113  12.3371673  57.2108903
  27.5410113  12.9111673  57.6918903  32.3700113   3.7491673  72.7808903
  32.1740113   4.3931673  73.3358903  31.6480113   3.2591673  72.7728903
  32.2350113   3.7721673  72.8618903  32.2690113   4.6901673  65.7518903
  31.4360113   4.9401673  65.6798903  32.2130113   3.8501673  65.9808903
  32.1380113   4.6031673  65.7748903  29.1560113   9.2961673  73.3978903
  30.0270113   9.2601673  73.3618903  28.9370113   9.7161673  72.6658903
  29.2530113   9.3521673  73.2848903  18.9100113  15.1211673  64.5788903
  18.8310113  14.3111673  64.2628903  18.4660113  15.6081673  64.0068903
  18.8330113  15.0731673  64.4478903  24.5110113  11.2401673  57.0618903
  25.2280113  10.8931673  56.7058903  24.4770113  12.0401673  56.7138903
  24.6120113  11.3071673  56.9578903  16.4820113  17.3651673  68.1598903
  16.9750113  17.3091673  68.8778903  16.6700113  16.6321673  67.7248903
  16.5830113  17.2481673  68.2018903  25.7290113   6.7971673  45.9716493
  25.2050113   7.3931673  46.3346493  26.1260113   6.4291673  46.6556493
  25.7100113   6.8311673  46.1266493  15.5980113  10.9371673  41.4276493
  15.1570113  11.0551673  42.1706493  15.3150113  10.1621673  41.1426493
  15.4910113  10.8401673  41.4956493  31.8730113  14.2381673  38.9426493
  32.5740113  13.7191673  38.9386493  31.2860113  13.7931673  38.4736493
  31.8900113  14.0951673  38.8726493  15.3410113   4.7291673  37.9346493
  14.5630113   4.8911673  37.5746493  15.3800113   3.8581673  37.9566493
  15.2320113   4.6241673  37.8846493  18.4800113   9.9921673  36.6066493
  18.0880113   9.6211673  35.9206493  18.4000113   9.3941673  37.2356493
  18.4100113   9.8491673  36.5976493  28.4000113   7.8641673  42.6476493
  28.4800113   7.8681673  41.7786493  27.8160113   7.2321673  42.7966493
  28.3250113   7.7711673  42.5416493  18.1070113  11.6331673  40.5066493
  18.7150113  11.4631673  41.1096493  17.3560113  11.4931673  40.9276493
  18.0860113  11.5871673  40.6576493  16.9980113  14.7241673  36.5836493
  17.4650113  14.8081673  35.8516493  17.4530113  14.1461673  37.0526493
  17.1340113  14.6511673  36.5446493  15.5380113  13.6721673  47.6826493
  15.6670113  13.3921673  48.4986493  14.9280113  13.1311673  47.3736493
  15.4670113  13.5511673  47.7576493  22.1120113  11.1971673  52.7496493
  21.8760113  11.1941673  53.5896493  21.3640113  11.0491673  52.3256493
  21.9660113  11.1741673  52.8106493  16.9840113   8.1931673  41.8846493
  16.5220113   7.8011673  41.2576493  17.6840113   7.6801673  41.9766493
  17.0190113   8.0601673  41.8056493  21.4920113   3.8031673  47.2316493
  22.1700113   3.8211673  46.6826493  21.4470113   2.9671673  47.4766493
  21.5850113   3.6821673  47.1866493  22.0940113  14.3891673  50.0126493
  22.2320113  15.1491673  49.6056493  22.8850113  14.0241673  50.0396493
  22.2310113  14.4481673  49.9566493  18.9850113   6.2931673  41.9076493
  19.8020113   6.1061673  42.1506493  18.5080113   5.6791673  42.3036493
  19.0350113   6.1751673  42.0026493  23.1890113  12.2741673  44.5176493
  23.5370113  11.4751673  44.5476493  23.8540113  12.7781673  44.2626493
  23.3390113  12.2301673  44.4846493  23.2460113  11.7231673  40.7286493
  23.5770113  11.0791673  41.2146493  23.4860113  11.5121673  39.9176493
  23.3300113  11.5971673  40.6806493  25.2140113   5.8541673  52.0676493
  24.3660113   5.7551673  51.8896493  25.2430113   6.5991673  52.5216493
  25.0930113   5.9501673  52.1086493  27.2340113   3.4551673  35.6956493
  26.7840113   4.1361673  36.0026493  27.3480113   2.9511673  36.3986493
  27.1850113   3.4811673  35.8446493  15.4400113   5.9541673  44.8976493
  15.1840113   6.7851673  44.8226493  14.7760113   5.5711673  45.3146493
  15.3040113   6.0201673  44.9486493  15.3500113  15.6641673  42.7976493
  14.7580113  16.2221673  42.4846493  15.7760113  15.3951673  42.0856493
  15.3260113  15.7061673  42.6466493  21.1900113  13.5081673  40.2776493
  20.6110113  13.2331673  40.8696493  21.8140113  12.8991673  40.3026493
  21.1970113  13.3781673  40.3686493  27.3330113  15.7961673  37.7996493
  28.0600113  16.2681673  37.9016493  27.5620113  15.0021673  38.0796493
  27.4750113  15.7491673  37.8566493  25.5010113  16.1881673  39.7896493
  25.7150113  16.7151673  40.4516493  26.2680113  16.0141673  39.4106493
  25.6460113  16.2401673  39.8316493  21.7750113   2.9041673  54.6866493
  21.8920113   2.4501673  53.9506493  22.0630113   3.7021673  54.4836493
  21.8350113   2.9551673  54.5476493  16.8950113  14.3341673  40.7286493
  17.5510113  13.7591673  40.7436493  17.2840113  15.0831673  40.5076493
  17.0500113  14.3591673  40.6986493  32.6280113   3.4281673  41.9906493
  32.2820113   4.1061673  42.4166493  31.9920113   2.8301673  42.0066493
  32.4830113   3.4401673  42.0556493  27.9400113  16.1981673  48.0946493
  28.6840113  16.6541673  48.0846493  27.8190113  15.9841673  47.2576493
  28.0320113  16.2341673  47.9696493  17.5080113   2.5011673  53.6706493
  16.7300113   2.1111673  53.5986493  17.9990113   2.0891673  53.0796493
  17.4650113   2.3821673  53.5726493  17.7130113  12.8211673  44.2286493
  18.1360113  12.4651673  43.5546493  18.0370113  12.3991673  44.9206493
  17.8230113  12.7061673  44.2316493  20.9440113  15.6731673  43.5246493
  21.7880113  15.7771673  43.3296493  20.6470113  16.4911673  43.5926493
  21.0250113  15.8091673  43.5056493  24.7510113   5.0701673  41.6116493
  25.0380113   4.8381673  40.8216493  25.4830113   5.1491673  42.0806493
  24.9010113   5.0471673  41.5646493  25.4730113   5.4091673  36.7326493
  25.7540113   6.1971673  36.9816493  24.6970113   5.5741673  36.3696493
  25.4000113   5.5501673  36.7156493  29.5140113  17.3831673  38.1996493
  30.1790113  17.2351673  37.6546493  29.8740113  17.3001673  38.9896493
  29.6660113  17.3491673  38.2356493  19.9420113  16.8921673  49.2646493
  20.2340113  16.8251673  50.0846493  19.3160113  16.2871673  49.2196493
  19.8930113  16.7931673  49.3796493  14.8560113   3.0491673  51.2566493
  14.8520113   3.6361673  51.9026493  15.4500113   3.3611673  50.6996493
  14.9430113   3.1821673  51.2696493  27.1940113  13.3831673  51.7986493
  27.1600113  13.7651673  52.5826493  28.0480113  13.3411673  51.6276493
  27.3150113  13.4331673  51.8896493  24.3320113  13.5801673  36.5486493
  24.1510113  14.1251673  37.2056493  25.0980113  13.8701673  36.2476493
  24.4180113  13.7041673  36.6016493  15.7930113   2.6441673  40.1716493
  15.6790113   1.7801673  40.2026493  15.3180113   2.9381673  40.8416493
  15.7060113   2.5601673  40.2746493  17.9350113  15.0541673  48.3866493
  17.2370113  14.5461673  48.5126493  18.1950113  14.8491673  47.5786493
  17.8700113  14.9491673  48.2856493  25.0970113   3.8521673  38.9166493
  24.5890113   3.1901673  38.6626493  25.1490113   4.3561673  38.2066493
  25.0300113   3.8291673  38.7746493  25.6460113  16.5471673  49.2966493
  26.4140113  16.4671673  48.8906493  25.0630113  16.4261673  48.6586493
  25.6730113  16.5171673  49.1426493  31.9230113  17.1501673  42.1976493
  31.4680113  17.8671673  42.3986493  31.3090113  16.5791673  41.9556493
  31.7650113  17.1721673  42.1916493  23.6950113   3.1601673  43.3296493
  23.7690113   3.7281673  42.6716493  23.8160113   3.6521673  44.0396493
  23.7230113   3.3171673  43.3376493  28.9200113  12.9951673  41.7416493
  29.6210113  12.5131673  41.9306493  28.2600113  12.4261673  41.7866493
  28.9260113  12.8401673  41.7756493  19.2960113  13.9051673  50.9536493
  20.1370113  13.9681673  50.7316493  19.2590113  14.3021673  51.7296493
  19.4150113  13.9731673  51.0356493  21.2590113   9.4161673  45.7026493
  21.4310113   9.2061673  46.5316493  20.6040113   8.8821673  45.4866493
  21.1880113   9.3061673  45.7936493  27.4870113   3.3301673  49.2176493
  27.3920113   3.6491673  50.0236493  26.8940113   2.6911673  49.1796493
  27.3850113   3.2821673  49.3316493  22.0090113   9.3541673  48.2926493
  22.0620113  10.2011673  48.4946493  21.7240113   8.9841673  49.0296493
  21.9750113   9.4241673  48.4306493  28.1860113  10.0491673  47.4226493
  27.6720113   9.6371673  47.9936493  28.0600113  10.8931673  47.6036493
  28.0920113  10.1131673  47.5336493  14.8300113  13.7251673  54.5036493
  15.5860113  14.0741673  54.7616493  15.0070113  12.8721673  54.4466493
  14.9680113  13.6501673  54.5336493  31.2070113   3.5101673  50.3616493
  31.9790113   3.2851673  50.6986493  30.7320113   3.7271673  51.0616493
  31.2510113   3.5091673  50.5146493  18.7510113   2.7931673  43.3316493
  19.0230113   2.3631673  42.6236493  18.5750113   2.1571673  43.9026493
  18.7650113   2.6361673  43.3116493  31.4390113  10.4881673  37.5496493
  31.5580113  10.2011673  38.3646493  32.2460113  10.5091673  37.2196493
  31.5750113  10.4491673  37.6216493  18.5750113  10.2201673  42.8806493
  19.4260113  10.1401673  42.7076493  18.2180113   9.5381673  42.4686493
  18.6480113  10.1071673  42.7936493  17.3420113  16.9451673  44.1176493
  16.6690113  16.4471673  43.8726493  17.7450113  17.1301673  43.3666493
  17.3020113  16.8991673  43.9706493  16.8920113   3.8951673  46.4136493
  17.7350113   4.1151673  46.3706493  16.5030113   4.4681673  45.8826493
  16.9590113   4.0121673  46.3286493  33.6730113  14.9971673  51.8036493
  32.9910113  15.3071673  51.3566493  33.3040113  14.5391673  52.4486493
  33.5170113  14.9751673  51.8326493  29.3340113   7.0251673  37.1346493
  29.1140113   7.7561673  36.7126493  28.8860113   7.0761673  37.8816493
  29.2350113   7.1401673  37.1826493  20.9430113  10.2271673  41.1156493
  21.6560113  10.7221673  41.2056493  21.1650113   9.6601673  40.4896493
  21.0810113  10.2161673  41.0366493  15.0990113  11.8701673  44.4356493
  14.4320113  12.3581673  44.7116493  15.7790113  12.4151673  44.4646493
  15.1010113  12.0221673  44.4806493  22.7460113   5.5801673  54.5316493
  22.2620113   6.1571673  54.9736493  22.7180113   5.8751673  53.7106493
  22.6700113   5.7091673  54.4756493  33.8440113   6.2641673  49.1436493
  34.0590113   5.4641673  48.8676493  32.9940113   6.3241673  48.9546493
  33.7500113   6.1551673  49.0746493  15.1650113   8.5541673  39.5386493
  14.9800113   7.7151673  39.6906493  15.8240113   8.5181673  38.9686493
  15.2350113   8.4251673  39.4766493  25.4660113  13.9301673  43.4426493
  24.9430113  14.5641673  43.1496493  25.7760113  13.5661673  42.7136493
  25.4340113  13.9701673  43.2916493  15.3370113  12.7181673  39.1136493
  15.8890113  13.2871673  39.4776493  15.1050113  12.2031673  39.7786493
  15.3840113  12.7261673  39.2656493  19.5410113  11.7181673  46.2026493
  20.0080113  12.0071673  46.8806493  20.1130113  11.2401673  45.7486493
  19.6950113  11.6901673  46.2356493  27.9770113   3.7321673  43.9396493
  28.3210113   3.8841673  44.7266493  27.5240113   2.9941673  44.0526493
  27.9610113   3.6451673  44.0726493  15.1670113  11.1671673  36.7416493
  15.9230113  10.7351673  36.7996493  15.1820113  11.6991673  37.4326493
  15.2810113  11.1821673  36.8526493  16.1070113   9.3881673  44.7466493
  16.5380113   9.2591673  43.9996493  15.9020113  10.2361673  44.7206493
  16.1400113   9.4941673  44.6326493  22.4530113   2.9521673  38.3966493
  22.4510113   2.8351673  37.5316493  22.2720113   3.8001673  38.4886493
  22.4260113   3.0601673  38.2826493  31.5070113  15.3791673  49.8936493
  30.8360113  15.8931673  50.1116493  31.5700113  15.4791673  49.0296493
  31.4170113  15.4701673  49.7986493  20.1910113  12.9041673  43.0286493
  20.3170113  13.7471673  43.2156493  20.8590113  12.5051673  43.4246493
  20.3090113  12.9701673  43.1146493  18.3210113   6.3871673  52.8906493
  17.7850113   5.8811673  53.3586493  18.3410113   5.9971673  52.1106493
  18.2440113   6.2541673  52.8446493  18.8060113   5.7841673  38.0306493
  18.6780113   5.3361673  38.7686493  18.2240113   5.4421673  37.4786493
  18.7010113   5.6671673  38.0586493  18.9730113   7.6141673  44.6296493
  18.1920113   7.5551673  44.2466493  19.0450113   6.8621673  45.0666493
  18.8680113   7.4951673  44.6376493  19.4030113   7.3511673  48.0976493
  19.4280113   6.6761673  47.5466493  18.7570113   7.8471673  47.7856493
  19.3120113   7.3241673  47.9706493  29.2980113   5.0641673  46.4936493
  28.6360113   5.3921673  46.9566493  29.4850113   5.6981673  45.9246493
  29.2280113   5.2061673  46.4776493  23.5030113  16.1281673  47.4896493
  23.2260113  15.4871673  46.9666493  23.2950113  16.8541673  47.0516493
  23.4320113  16.1411673  47.3476493  27.4910113   3.0331673  40.0046493
  27.9810113   3.7501673  39.9276493  26.7010113   3.2941673  39.7416493
  27.4470113   3.1771673  39.9546493  17.2020113   8.7061673  53.6566493
  17.1650113   9.2071673  52.9426493  17.5330113   7.9541673  53.3616493
  17.2450113   8.6681673  53.5076493  28.8050113  10.9111673  51.9146493
  29.2890113  11.6291673  52.0126493  29.1990113  10.4841673  51.2636493
  28.9350113  10.9541673  51.8326493  23.1010113  13.7561673  53.0916493
  23.4550113  13.5781673  53.8686493  22.6650113  13.0271673  52.8926493
  23.0890113  13.6221673  53.1776493  24.0730113   4.5031673  45.7296493
  24.5530113   5.2021673  45.9376493  24.4460113   3.8561673  46.1806493
  24.1990113   4.5111673  45.8266493  26.2620113   7.6721673  38.0036493
  26.2540113   8.3941673  37.5136493  25.6230113   7.8071673  38.5806493
  26.1670113   7.7991673  38.0166493  31.2340113  11.5421673  41.9846493
  31.5900113  11.1921673  42.6996493  31.2260113  10.8811673  41.4146493
  31.2860113  11.3921673  42.0056493  27.2790113  14.6081673  45.8286493
  26.6760113  14.3121673  45.2716493  27.8240113  15.0601673  45.3196493
  27.2700113  14.6311673  45.6706493  27.2920113  11.4591673  45.2286493
  26.4950113  11.6831673  45.5026493  27.5500113  10.8651673  45.8136493
  27.2120113  11.4041673  45.3556493  21.1840113  16.2711673  39.6766493
  21.0370113  15.4951673  40.0476493  21.8730113  16.1241673  39.1616493
  21.2640113  16.1341673  39.6556493  23.4760113  15.7871673  38.0786493
  24.0980113  15.9501673  38.6686493  23.5120113  16.4781673  37.5466493
  23.5730113  15.9131673  38.0876493  30.5520113   9.4571673  50.0746493
  30.6070113   9.5821673  49.2126493  31.3050113   9.7771673  50.3766493
  30.6710113   9.5221673  49.9916493  26.7430113  14.8061673  54.3516493
  26.9070113  15.0891673  55.1606493  27.0060113  15.4671673  53.8466493
  26.8060113  14.9461673  54.3966493  17.9770113   8.3211673  38.9076493
  18.3010113   7.5421673  38.6856493  18.6230113   8.6891673  39.3626493
  18.1200113   8.2601673  38.9416493  26.2830113   9.2631673  49.6746493
  26.1280113   9.8731673  50.2786493  26.8170113   8.7051673  50.0806493
  26.3390113   9.2711673  49.8236493  24.6670113   7.6631673  40.3326493
  24.7260113   8.3131673  40.9116493  24.4780113   6.9671673  40.8236493
  24.6480113   7.6561673  40.4906493  29.8930113  11.9921673  46.2016493
  29.4140113  12.2901673  45.5356493  29.5370113  11.2161673  46.3796493
  29.7700113  11.9211673  46.1296493  19.1630113   2.1801673  36.8446493
  18.6520113   2.2331673  36.1386493  19.9470113   2.4201673  36.5486493
  19.2030113   2.2231673  36.6966493  23.8900113   9.7101673  44.7636493
  23.0430113   9.5161673  44.8446493  24.2140113   9.5451673  45.5566493
  23.8120113   9.6571673  44.8926493  20.6420113  16.4401673  35.6496493
  21.0810113  15.7431673  35.9376493  20.8490113  17.0641673  36.2226493
  20.7380113  16.4291673  35.7766493  17.7380113   9.4031673  47.0796493
  18.4600113   9.8911673  47.0426493  17.4680113   9.3731673  46.2506493
  17.8050113   9.4711673  46.9516493  20.9680113   4.5741673  43.8146493
  21.8140113   4.3841673  43.9126493  20.5980113   3.7971673  43.6766493
  21.0380113   4.4311673  43.8086493  33.5850113  16.1581673  38.1416493
  34.2790113  15.6911673  37.8936493  33.0460113  15.5601673  38.4786493
  33.6080113  16.0001673  38.1546493  15.7890113   5.9121673  40.4696493
  16.2780113   5.6201673  41.1306493  15.9180113   5.3191673  39.8426493
  15.8800113   5.7811673  40.4746493  30.8240113   8.9341673  47.3206493
  30.8170113   8.1581673  47.7186493  29.9830113   9.1681673  47.3136493
  30.6990113   8.8541673  47.3786493  20.3140113   7.3461673  35.9556493
  19.7040113   6.9411673  36.4296493  19.9280113   7.4641673  35.1826493
  20.1670113   7.3031673  35.9116493  17.1330113  10.4551673  51.3576493
  16.7120113   9.9371673  50.7966493  16.7810113  11.2411673  51.2146493
  17.0190113  10.4951673  51.2536493  32.0800113   9.0051673  44.7576493
  31.7940113   9.4061673  45.4776493  32.9400113   8.9431673  44.8846493
  32.1650113   9.0551673  44.8826493  21.7690113   5.8071673  38.6656493
  22.0410113   6.6331673  38.7326493  20.9060113   5.8821673  38.5696493
  21.6820113   5.9401673  38.6606493  29.7420113   2.9291673  53.2976493
  29.2170113   3.3881673  53.8216493  29.3810113   2.1341673  53.2916493
  29.6110113   2.8791673  53.3736493  15.2490113   1.7771673  45.2016493
  15.2930113   2.1211673  44.4006493  16.0040113   2.0141673  45.5686493
  15.3670113   1.8631673  45.1376493  33.2110113  14.6381673  45.2866493
  33.5010113  14.8951673  44.5056493  33.9060113  14.7341673  45.8056493
  33.3570113  14.6901673  45.2476493  28.2340113   6.4981673  53.3736493
  28.3070113   6.6021673  54.2366493  27.6000113   7.0561673  53.1526493
  28.1510113   6.5961673  53.4686493  30.5020113   6.8171673  51.7386493
  30.8210113   7.6031673  51.9416493  30.1320113   6.5471673  52.4816493
  30.4950113   6.8931673  51.8786493  29.8160113  13.2411673  37.2686493
  30.1500113  12.4351673  37.3036493  29.0610113  13.1691673  37.6986493
  29.7540113  13.1111673  37.3376493  30.2980113   5.0751673  42.9276493
  29.5530113   4.7521673  43.2456493  30.3000113   5.9011673  43.2076493
  30.1880113   5.1491673  43.0156493  33.2000113   7.3591673  54.4736493
  33.1480113   7.0181673  53.6726493  33.9370113   7.8261673  54.4516493
  33.3010113   7.3781673  54.3516493  32.7380113  11.0351673  50.6796493
  33.3660113  10.4861673  50.4236493  32.6770113  11.6001673  50.0176493
  32.8220113  11.0381673  50.5436493  27.1900113  11.1161673  36.6716493
  27.8740113  10.6021673  36.5026493  26.7730113  11.1621673  35.9066493
  27.2290113  11.0471673  36.5336493  21.8720113  12.2661673  47.9756493
  21.5740113  12.8581673  48.5426493  21.9270113  12.7081673  47.2266493
  21.8360113  12.4191673  47.9486493  19.8510113  11.2161673  51.3736493
  19.0450113  10.9261673  51.5406493  19.7620113  12.0841673  51.3796493
  19.7190113  11.3011673  51.3986493  24.3880113   8.6891673  47.4666493
  24.8640113   9.0631673  48.0946493  23.5650113   8.8231673  47.7256493
  24.3370113   8.7641673  47.5976493  21.0980113   4.2921673  50.2076493
  21.2590113   3.5481673  50.6346493  21.0530113   4.0431673  49.3726493
  21.1150113   4.1451673  50.1476493  23.6520113  16.0821673  42.6946493
  24.1980113  16.7611673  42.7486493  23.3020113  16.1641673  41.8996493
  23.6810113  16.1951673  42.5846493  21.8350113  14.3101673  46.0836493
  21.2110113  14.8921673  45.9016493  22.0830113  14.0241673  45.2976493
  21.7790113  14.3541673  45.9406493  26.1440113  10.9441673  53.0726493
  26.9010113  11.2301673  52.7466493  25.5970113  10.9961673  52.3946493
  26.1750113  10.9941673  52.9236493  30.0530113  13.4941673  51.5766493
  30.3990113  13.7641673  52.3306493  30.3470113  14.0761673  50.9966493
  30.1480113  13.6201673  51.6026493  31.9160113   5.6401673  36.9156493
  32.2940113   6.3171673  36.5156493  31.0740113   5.8641673  36.9466493
  31.8470113   5.7731673  36.8606493  23.4290113   9.0861673  35.9986493
  22.6240113   8.9091673  35.7136493  23.3960113   9.9371673  36.1906493
  23.3050113   9.1851673  35.9856493  19.3590113   5.1531673  46.1486493
  19.7990113   5.0501673  45.4026493  19.9040113   4.8401673  46.7536493
  19.5040113   5.0921673  46.1276493  27.3750113   4.2551673  51.7406493
  26.7270113   4.7251673  52.0886493  27.9400113   4.1661673  52.3996493
  27.3630113   4.3111673  51.8896493  27.0630113   5.7921673  48.0386493
  27.3650113   6.2121673  48.7416493  27.0990113   4.9521673  48.2706493
  27.1130113   5.7301673  48.1766493  24.4880113  15.9591673  51.9636493
  24.9660113  15.3591673  51.5476493  24.1370113  15.5161673  52.6286493
  24.5070113  15.8051673  52.0006493  29.6110113   5.2391673  40.2906493
  29.8180113   5.0381673  41.1146493  30.3670113   5.5071673  39.9486493
  29.7530113   5.2491673  40.3616493  31.0760113   9.2661673  40.1446493
  31.5520113   8.5371673  40.0966493  30.2550113   8.9801673  40.0686493
  31.0250113   9.1161673  40.1256493  24.5470113  11.1781673  50.9836493
  23.7520113  11.1141673  51.3346493  24.6180113  12.0251673  50.7886493
  24.4400113  11.2931673  51.0066493  20.3770113  17.3851673  46.3006493
  20.3880113  17.4441673  47.1706493  19.9520113  16.6381673  46.1506493
  20.3160113  17.2831673  46.4066493  18.5350113   3.2801673  39.4556493
  18.6610113   2.9511673  38.6576493  17.7230113   3.0311673  39.6546493
  18.4340113   3.1951673  39.3676493  27.2920113  10.4331673  42.4996493
  27.3680113  10.7741673  43.2986493  27.4610113   9.5861673  42.6206493
  27.3280113  10.3581673  42.6356493  24.8140113   9.7071673  42.0646493
  24.5160113   9.3921673  42.8216493  25.5090113  10.1801673  42.2996493
  24.8730113   9.7301673  42.2116493  25.0360113  13.8251673  50.0916493
  25.7230113  13.7111673  50.6166493  25.1700113  14.6161673  49.7476493
  25.1570113  13.9251673  50.1186493  33.2120113   6.4341673  51.9026493
  32.3570113   6.3121673  52.0286493  33.3650113   6.0391673  51.1396493
  33.1080113   6.3571673  51.8086493  27.7250113   7.0991673  50.4786493
  27.4700113   6.3801673  50.9006493  28.5460113   7.2151673  50.7486493
  27.8090113   7.0101673  50.5806493  17.1410113  16.8831673  51.7426493
  16.4870113  16.3141673  51.8406493  16.7660113  17.6561673  51.8936493
  16.9890113  16.9131673  51.7796493  25.6590113   8.2891673  53.6656493
  25.9820113   8.9751673  53.2336493  24.9550113   8.6121673  54.0676493
  25.6020113   8.4381673  53.6606493  28.7430113  16.6631673  44.5946493
  28.2920113  17.3061673  44.9736493  29.4510113  16.5841673  45.0996493
  28.7810113  16.7461673  44.7256493  25.4440113  11.7531673  47.5246493
  24.7500113  12.1551673  47.8676493  26.1210113  12.1861673  47.8636493
  25.4410113  11.8761673  47.6256493  30.8210113  14.3461673  54.1046493
  31.5970113  13.9561673  54.1876493  30.3520113  14.0101673  54.7596493
  30.8660113  14.2391673  54.2136493  18.5120113   5.2911673  49.8716493
  18.8870113   5.9101673  49.3846493  19.1860113   4.8171673  50.1566493
  18.6670113   5.3131673  49.8416493  16.2870113   3.7391673  49.1466493
  16.3640113   3.5701673  48.2936493  17.0330113   4.1451673  49.3436493
  16.4080113   3.7741673  49.0496493  31.8460113   6.3791673  39.5866493
  31.9490113   6.3211673  38.7226493  32.5870113   6.0471673  39.9046493
  31.9710113   6.3221673  39.5056493  25.7660113  13.3441673  40.6936493
  25.5610113  14.1771673  40.5346493  24.9910113  12.9621673  40.8156493
  25.6210113  13.4111673  40.6886493  30.9480113   6.5251673  48.9426493
  30.9460113   5.6621673  49.0666493  31.0150113   6.8491673  49.7496493
  30.9580113   6.4451673  49.0796493  15.6840113   8.9651673  49.3706493
  16.0040113   9.1841673  48.5896493  15.5840113   8.1001673  49.3156493
  15.7160113   8.8701673  49.2476493  17.1400113   4.9011673  35.9886493
  16.4680113   4.9151673  36.5446493  17.2350113   4.0531673  35.8046493
  17.0550113   4.7781673  36.0436493  21.1280113  13.6061673  37.1026493
  21.5690113  13.6861673  37.8506493  20.3230113  13.3901673  37.3606493
  21.0740113  13.5861673  37.2516493  29.4190113   2.0311673  46.3786493
  30.2740113   2.1301673  46.5236493  29.0500113   2.5841673  46.9436493
  29.4910113   2.1281673  46.4836493  20.4470113   8.2571673  50.7556493
  20.0510113   9.0311673  50.8306493  20.0410113   7.8841673  50.0796493
  20.3290113   8.3161673  50.6666493  29.7230113   7.3111673  44.8696493
  30.3890113   7.8521673  45.0296493  29.3780113   7.6221673  44.1306493
  29.7700113   7.4371673  44.7846493  30.0360113  15.3771673  40.6766493
  29.8620113  14.7231673  41.2266493  30.7490113  15.1061673  40.2536493
  30.1160113  15.2401673  40.6956493  18.4570113  12.6761673  37.7036493
  18.2130113  12.3691673  38.4836493  18.4240113  11.9731673  37.1876493
  18.4160113  12.5271673  37.7426493  21.2760113  10.9211673  36.4466493
  20.4580113  10.6531673  36.5866493  21.2480113  11.7731673  36.6316493
  21.1510113  11.0081673  36.4946493  27.7110113  12.8301673  48.3676493
  27.9170113  13.1311673  49.1596493  27.6500113  13.5521673  47.8826493
  27.7320113  12.9811673  48.4126493  27.2450113  17.0441673  52.6136493
  26.4920113  17.0261673  52.1726493  27.4130113  17.8961673  52.6976493
  27.1590113  17.1671673  52.5606493  22.4820113   6.3111673  51.7836493
  22.1600113   5.7351673  51.2136493  22.1230113   7.0661673  51.5376493
  22.3820113   6.3371673  51.6636493  32.5230113  11.4691673  47.8256493
  32.4910113  10.6071673  47.6906493  31.8300113  11.7711673  47.3916493
  32.4160113  11.3861673  47.7416493  20.9170113  16.6671673  52.0316493
  20.9580113  16.7931673  52.8946493  21.5680113  16.1071673  51.8756493
  21.0190113  16.6031673  52.1366493  30.6280113  14.7291673  46.6226493
  31.1550113  14.6461673  45.9316493  30.2370113  13.9511673  46.6766493
  30.6480113  14.6021673  46.5286493  18.5100113  15.0501673  53.3916493
  19.1050113  15.4811673  53.8636493  18.1460113  15.6741673  52.9026493
  18.5440113  15.2061673  53.3886493  26.5010113   5.9811673  43.3236493
  27.0520113   5.3741673  43.6236493  26.0760113   6.2441673  44.0386493
  26.5200113   5.9301673  43.4726493  16.7490113   4.6311673  42.8096493
  16.3810113   4.9331673  43.5406493  17.2830113   4.0021673  43.0936493
  16.7730113   4.5831673  42.9596493  16.4370113  13.0391673  50.3206493
  15.8630113  13.4551673  50.8296493  17.1700113  13.5041673  50.4156493
  16.4610113  13.1691673  50.4096493  28.4710113   7.8121673  39.8856493
  28.5390113   6.9621673  40.0666493  27.6480113   7.8981673  39.6076493
  28.3590113   7.6991673  39.8716493  18.2230113  16.3061673  39.0956493
  18.0780113  16.4621673  38.2496493  19.0890113  16.3851673  39.1736493
  18.3300113  16.3411673  38.9826493  22.3900113   8.7031673  38.8236493
  22.4900113   8.8421673  37.9686493  23.2080113   8.6431673  39.1196493
  22.5250113   8.7141673  38.7406493  31.5500113  16.7671673  36.3036493
  32.1870113  16.6331673  36.8846493  31.2090113  15.9731673  36.1866493
  31.5940113  16.6301673  36.3716493  31.7450113   9.1851673  53.0366493
  32.3790113   9.0151673  53.6106493  32.1620113   9.5881673  52.3846493
  31.9000113   9.2201673  53.0256493  27.6250113  13.0321673  38.6256493
  27.3740113  12.9041673  39.4516493  27.3080113  12.3371673  38.2046493
  27.5410113  12.9111673  38.6856493  32.3700113   3.7491673  53.7746493
  32.1740113   4.3931673  54.3296493  31.6480113   3.2591673  53.7666493
  32.2350113   3.7721673  53.8556493  32.2690113   4.6901673  46.7456493
  31.4360113   4.9401673  46.6736493  32.2130113   3.8501673  46.9746493
  32.1380113   4.6031673  46.7686493  29.1560113   9.2961673  54.3916493
  30.0270113   9.2601673  54.3556493  28.9370113   9.7161673  53.6596493
  29.2530113   9.3521673  54.2786493  18.9100113  15.1211673  45.5726493
  18.8310113  14.3111673  45.2566493  18.4660113  15.6081673  45.0006493
  18.8330113  15.0731673  45.4416493  24.5110113  11.2401673  38.0556493
  25.2280113  10.8931673  37.6996493  24.4770113  12.0401673  37.7076493
  24.6120113  11.3071673  37.9516493  16.4820113  17.3651673  49.1536493
  16.9750113  17.3091673  49.8716493  16.6700113  16.6321673  48.7186493
  16.5830113  17.2481673  49.1956493  25.7290113   6.7971673  26.9654083
  25.2050113   7.3931673  27.3284083  26.1260113   6.4291673  27.6494083
  25.7100113   6.8311673  27.1204083  15.5980113  10.9371673  22.4214083
  15.1570113  11.0551673  23.1644083  15.3150113  10.1621673  22.1364083
  15.4910113  10.8401673  22.4894083  31.8730113  14.2381673  19.9364083
  32.5740113  13.7191673  19.9324083  31.2860113  13.7931673  19.4674083
  31.8900113  14.0951673  19.8664083  15.3410113   4.7291673  18.9284083
  14.5630113   4.8911673  18.5684083  15.3800113   3.8581673  18.9504083
  15.2320113   4.6241673  18.8784083  18.4800113   9.9921673  17.6004083
  18.0880113   9.6211673  16.9144083  18.4000113   9.3941673  18.2294083
  18.4100113   9.8491673  17.5914083  28.4000113   7.8641673  23.6414083
  28.4800113   7.8681673  22.7724083  27.8160113   7.2321673  23.7904083
  28.3250113   7.7711673  23.5354083  18.1070113  11.6331673  21.5004083
  18.7150113  11.4631673  22.1034083  17.3560113  11.4931673  21.9214083
  18.0860113  11.5871673  21.6514083  16.9980113  14.7241673  17.5774083
  17.4650113  14.8081673  16.8454083  17.4530113  14.1461673  18.0464083
  17.1340113  14.6511673  17.5384083  15.5380113  13.6721673  28.6764083
  15.6670113  13.3921673  29.4924083  14.9280113  13.1311673  28.3674083
  15.4670113  13.5511673  28.7514083  22.1120113  11.1971673  33.7434083
  21.8760113  11.1941673  34.5834083  21.3640113  11.0491673  33.3194083
  21.9660113  11.1741673  33.8044083  16.9840113   8.1931673  22.8784083
  16.5220113   7.8011673  22.2514083  17.6840113   7.6801673  22.9704083
  17.0190113   8.0601673  22.7994083  21.4920113   3.8031673  28.2254083
  22.1700113   3.8211673  27.6764083  21.4470113   2.9671673  28.4704083
  21.5850113   3.6821673  28.1804083  22.0940113  14.3891673  31.0064083
  22.2320113  15.1491673  30.5994083  22.8850113  14.0241673  31.0334083
  22.2310113  14.4481673  30.9504083  18.9850113   6.2931673  22.9014083
  19.8020113   6.1061673  23.1444083  18.5080113   5.6791673  23.2974083
  19.0350113   6.1751673  22.9964083  23.1890113  12.2741673  25.5114083
  23.5370113  11.4751673  25.5414083  23.8540113  12.7781673  25.2564083
  23.3390113  12.2301673  25.4784083  23.2460113  11.7231673  21.7224083
  23.5770113  11.0791673  22.2084083  23.4860113  11.5121673  20.9114083
  23.3300113  11.5971673  21.6744083  25.2140113   5.8541673  33.0614083
  24.3660113   5.7551673  32.8834083  25.2430113   6.5991673  33.5154083
  25.0930113   5.9501673  33.1024083  27.2340113   3.4551673  16.6894083
  26.7840113   4.1361673  16.9964083  27.3480113   2.9511673  17.3924083
  27.1850113   3.4811673  16.8384083  15.4400113   5.9541673  25.8914083
  15.1840113   6.7851673  25.8164083  14.7760113   5.5711673  26.3084083
  15.3040113   6.0201673  25.9424083  15.3500113  15.6641673  23.7914083
  14.7580113  16.2221673  23.4784083  15.7760113  15.3951673  23.0794083
  15.3260113  15.7061673  23.6404083  21.1900113  13.5081673  21.2714083
  20.6110113  13.2331673  21.8634083  21.8140113  12.8991673  21.2964083
  21.1970113  13.3781673  21.3624083  27.3330113  15.7961673  18.7934083
  28.0600113  16.2681673  18.8954083  27.5620113  15.0021673  19.0734083
  27.4750113  15.7491673  18.8504083  25.5010113  16.1881673  20.7834083
  25.7150113  16.7151673  21.4454083  26.2680113  16.0141673  20.4044083
  25.6460113  16.2401673  20.8254083  21.7750113   2.9041673  35.6804083
  21.8920113   2.4501673  34.9444083  22.0630113   3.7021673  35.4774083
  21.8350113   2.9551673  35.5414083  16.8950113  14.3341673  21.7224083
  17.5510113  13.7591673  21.7374083  17.2840113  15.0831673  21.5014083
  17.0500113  14.3591673  21.6924083  32.6280113   3.4281673  22.9844083
  32.2820113   4.1061673  23.4104083  31.9920113   2.8301673  23.0004083
  32.4830113   3.4401673  23.0494083  27.9400113  16.1981673  29.0884083
  28.6840113  16.6541673  29.0784083  27.8190113  15.9841673  28.2514083
  28.0320113  16.2341673  28.9634083  17.5080113   2.5011673  34.6644083
  16.7300113   2.1111673  34.5924083  17.9990113   2.0891673  34.0734083
  17.4650113   2.3821673  34.5664083  17.7130113  12.8211673  25.2224083
  18.1360113  12.4651673  24.5484083  18.0370113  12.3991673  25.9144083
  17.8230113  12.7061673  25.2254083  20.9440113  15.6731673  24.5184083
  21.7880113  15.7771673  24.3234083  20.6470113  16.4911673  24.5864083
  21.0250113  15.8091673  24.4994083  24.7510113   5.0701673  22.6054083
  25.0380113   4.8381673  21.8154083  25.4830113   5.1491673  23.0744083
  24.9010113   5.0471673  22.5584083  25.4730113   5.4091673  17.7264083
  25.7540113   6.1971673  17.9754083  24.6970113   5.5741673  17.3634083
  25.4000113   5.5501673  17.7094083  29.5140113  17.3831673  19.1934083
  30.1790113  17.2351673  18.6484083  29.8740113  17.3001673  19.9834083
  29.6660113  17.3491673  19.2294083  19.9420113  16.8921673  30.2584083
  20.2340113  16.8251673  31.0784083  19.3160113  16.2871673  30.2134083
  19.8930113  16.7931673  30.3734083  14.8560113   3.0491673  32.2504083
  14.8520113   3.6361673  32.8964083  15.4500113   3.3611673  31.6934083
  14.9430113   3.1821673  32.2634083  27.1940113  13.3831673  32.7924083
  27.1600113  13.7651673  33.5764083  28.0480113  13.3411673  32.6214083
  27.3150113  13.4331673  32.8834083  24.3320113  13.5801673  17.5424083
  24.1510113  14.1251673  18.1994083  25.0980113  13.8701673  17.2414083
  24.4180113  13.7041673  17.5954083  15.7930113   2.6441673  21.1654083
  15.6790113   1.7801673  21.1964083  15.3180113   2.9381673  21.8354083
  15.7060113   2.5601673  21.2684083  17.9350113  15.0541673  29.3804083
  17.2370113  14.5461673  29.5064083  18.1950113  14.8491673  28.5724083
  17.8700113  14.9491673  29.2794083  25.0970113   3.8521673  19.9104083
  24.5890113   3.1901673  19.6564083  25.1490113   4.3561673  19.2004083
  25.0300113   3.8291673  19.7684083  25.6460113  16.5471673  30.2904083
  26.4140113  16.4671673  29.8844083  25.0630113  16.4261673  29.6524083
  25.6730113  16.5171673  30.1364083  31.9230113  17.1501673  23.1914083
  31.4680113  17.8671673  23.3924083  31.3090113  16.5791673  22.9494083
  31.7650113  17.1721673  23.1854083  23.6950113   3.1601673  24.3234083
  23.7690113   3.7281673  23.6654083  23.8160113   3.6521673  25.0334083
  23.7230113   3.3171673  24.3314083  28.9200113  12.9951673  22.7354083
  29.6210113  12.5131673  22.9244083  28.2600113  12.4261673  22.7804083
  28.9260113  12.8401673  22.7694083  19.2960113  13.9051673  31.9474083
  20.1370113  13.9681673  31.7254083  19.2590113  14.3021673  32.7234083
  19.4150113  13.9731673  32.0294083  21.2590113   9.4161673  26.6964083
  21.4310113   9.2061673  27.5254083  20.6040113   8.8821673  26.4804083
  21.1880113   9.3061673  26.7874083  27.4870113   3.3301673  30.2114083
  27.3920113   3.6491673  31.0174083  26.8940113   2.6911673  30.1734083
  27.3850113   3.2821673  30.3254083  22.0090113   9.3541673  29.2864083
  22.0620113  10.2011673  29.4884083  21.7240113   8.9841673  30.0234083
  21.9750113   9.4241673  29.4244083  28.1860113  10.0491673  28.4164083
  27.6720113   9.6371673  28.9874083  28.0600113  10.8931673  28.5974083
  28.0920113  10.1131673  28.5274083  14.8300113  13.7251673  35.4974083
  15.5860113  14.0741673  35.7554083  15.0070113  12.8721673  35.4404083
  14.9680113  13.6501673  35.5274083  31.2070113   3.5101673  31.3554083
  31.9790113   3.2851673  31.6924083  30.7320113   3.7271673  32.0554083
  31.2510113   3.5091673  31.5084083  18.7510113   2.7931673  24.3254083
  19.0230113   2.3631673  23.6174083  18.5750113   2.1571673  24.8964083
  18.7650113   2.6361673  24.3054083  31.4390113  10.4881673  18.5434083
  31.5580113  10.2011673  19.3584083  32.2460113  10.5091673  18.2134083
  31.5750113  10.4491673  18.6154083  18.5750113  10.2201673  23.8744083
  19.4260113  10.1401673  23.7014083  18.2180113   9.5381673  23.4624083
  18.6480113  10.1071673  23.7874083  17.3420113  16.9451673  25.1114083
  16.6690113  16.4471673  24.8664083  17.7450113  17.1301673  24.3604083
  17.3020113  16.8991673  24.9644083  16.8920113   3.8951673  27.4074083
  17.7350113   4.1151673  27.3644083  16.5030113   4.4681673  26.8764083
  16.9590113   4.0121673  27.3224083  33.6730113  14.9971673  32.7974083
  32.9910113  15.3071673  32.3504083  33.3040113  14.5391673  33.4424083
  33.5170113  14.9751673  32.8264083  29.3340113   7.0251673  18.1284083
  29.1140113   7.7561673  17.7064083  28.8860113   7.0761673  18.8754083
  29.2350113   7.1401673  18.1764083  20.9430113  10.2271673  22.1094083
  21.6560113  10.7221673  22.1994083  21.1650113   9.6601673  21.4834083
  21.0810113  10.2161673  22.0304083  15.0990113  11.8701673  25.4294083
  14.4320113  12.3581673  25.7054083  15.7790113  12.4151673  25.4584083
  15.1010113  12.0221673  25.4744083  22.7460113   5.5801673  35.5254083
  22.2620113   6.1571673  35.9674083  22.7180113   5.8751673  34.7044083
  22.6700113   5.7091673  35.4694083  33.8440113   6.2641673  30.1374083
  34.0590113   5.4641673  29.8614083  32.9940113   6.3241673  29.9484083
  33.7500113   6.1551673  30.0684083  15.1650113   8.5541673  20.5324083
  14.9800113   7.7151673  20.6844083  15.8240113   8.5181673  19.9624083
  15.2350113   8.4251673  20.4704083  25.4660113  13.9301673  24.4364083
  24.9430113  14.5641673  24.1434083  25.7760113  13.5661673  23.7074083
  25.4340113  13.9701673  24.2854083  15.3370113  12.7181673  20.1074083
  15.8890113  13.2871673  20.4714083  15.1050113  12.2031673  20.7724083
  15.3840113  12.7261673  20.2594083  19.5410113  11.7181673  27.1964083
  20.0080113  12.0071673  27.8744083  20.1130113  11.2401673  26.7424083
  19.6950113  11.6901673  27.2294083  27.9770113   3.7321673  24.9334083
  28.3210113   3.8841673  25.7204083  27.5240113   2.9941673  25.0464083
  27.9610113   3.6451673  25.0664083  15.1670113  11.1671673  17.7354083
  15.9230113  10.7351673  17.7934083  15.1820113  11.6991673  18.4264083
  15.2810113  11.1821673  17.8464083  16.1070113   9.3881673  25.7404083
  16.5380113   9.2591673  24.9934083  15.9020113  10.2361673  25.7144083
  16.1400113   9.4941673  25.6264083  22.4530113   2.9521673  19.3904083
  22.4510113   2.8351673  18.5254083  22.2720113   3.8001673  19.4824083
  22.4260113   3.0601673  19.2764083  31.5070113  15.3791673  30.8874083
  30.8360113  15.8931673  31.1054083  31.5700113  15.4791673  30.0234083
  31.4170113  15.4701673  30.7924083  20.1910113  12.9041673  24.0224083
  20.3170113  13.7471673  24.2094083  20.8590113  12.5051673  24.4184083
  20.3090113  12.9701673  24.1084083  18.3210113   6.3871673  33.8844083
  17.7850113   5.8811673  34.3524083  18.3410113   5.9971673  33.1044083
  18.2440113   6.2541673  33.8384083  18.8060113   5.7841673  19.0244083
  18.6780113   5.3361673  19.7624083  18.2240113   5.4421673  18.4724083
  18.7010113   5.6671673  19.0524083  18.9730113   7.6141673  25.6234083
  18.1920113   7.5551673  25.2404083  19.0450113   6.8621673  26.0604083
  18.8680113   7.4951673  25.6314083  19.4030113   7.3511673  29.0914083
  19.4280113   6.6761673  28.5404083  18.7570113   7.8471673  28.7794083
  19.3120113   7.3241673  28.9644083  29.2980113   5.0641673  27.4874083
  28.6360113   5.3921673  27.9504083  29.4850113   5.6981673  26.9184083
  29.2280113   5.2061673  27.4714083  23.5030113  16.1281673  28.4834083
  23.2260113  15.4871673  27.9604083  23.2950113  16.8541673  28.0454083
  23.4320113  16.1411673  28.3414083  27.4910113   3.0331673  20.9984083
  27.9810113   3.7501673  20.9214083  26.7010113   3.2941673  20.7354083
  27.4470113   3.1771673  20.9484083  17.2020113   8.7061673  34.6504083
  17.1650113   9.2071673  33.9364083  17.5330113   7.9541673  34.3554083
  17.2450113   8.6681673  34.5014083  28.8050113  10.9111673  32.9084083
  29.2890113  11.6291673  33.0064083  29.1990113  10.4841673  32.2574083
  28.9350113  10.9541673  32.8264083  23.1010113  13.7561673  34.0854083
  23.4550113  13.5781673  34.8624083  22.6650113  13.0271673  33.8864083
  23.0890113  13.6221673  34.1714083  24.0730113   4.5031673  26.7234083
  24.5530113   5.2021673  26.9314083  24.4460113   3.8561673  27.1744083
  24.1990113   4.5111673  26.8204083  26.2620113   7.6721673  18.9974083
  26.2540113   8.3941673  18.5074083  25.6230113   7.8071673  19.5744083
  26.1670113   7.7991673  19.0104083  31.2340113  11.5421673  22.9784083
  31.5900113  11.1921673  23.6934083  31.2260113  10.8811673  22.4084083
  31.2860113  11.3921673  22.9994083  27.2790113  14.6081673  26.8224083
  26.6760113  14.3121673  26.2654083  27.8240113  15.0601673  26.3134083
  27.2700113  14.6311673  26.6644083  27.2920113  11.4591673  26.2224083
  26.4950113  11.6831673  26.4964083  27.5500113  10.8651673  26.8074083
  27.2120113  11.4041673  26.3494083  21.1840113  16.2711673  20.6704083
  21.0370113  15.4951673  21.0414083  21.8730113  16.1241673  20.1554083
  21.2640113  16.1341673  20.6494083  23.4760113  15.7871673  19.0724083
  24.0980113  15.9501673  19.6624083  23.5120113  16.4781673  18.5404083
  23.5730113  15.9131673  19.0814083  30.5520113   9.4571673  31.0684083
  30.6070113   9.5821673  30.2064083  31.3050113   9.7771673  31.3704083
  30.6710113   9.5221673  30.9854083  26.7430113  14.8061673  35.3454083
  26.9070113  15.0891673  36.1544083  27.0060113  15.4671673  34.8404083
  26.8060113  14.9461673  35.3904083  17.9770113   8.3211673  19.9014083
  18.3010113   7.5421673  19.6794083  18.6230113   8.6891673  20.3564083
  18.1200113   8.2601673  19.9354083  26.2830113   9.2631673  30.6684083
  26.1280113   9.8731673  31.2724083  26.8170113   8.7051673  31.0744083
  26.3390113   9.2711673  30.8174083  24.6670113   7.6631673  21.3264083
  24.7260113   8.3131673  21.9054083  24.4780113   6.9671673  21.8174083
  24.6480113   7.6561673  21.4844083  29.8930113  11.9921673  27.1954083
  29.4140113  12.2901673  26.5294083  29.5370113  11.2161673  27.3734083
  29.7700113  11.9211673  27.1234083  19.1630113   2.1801673  17.8384083
  18.6520113   2.2331673  17.1324083  19.9470113   2.4201673  17.5424083
  19.2030113   2.2231673  17.6904083  23.8900113   9.7101673  25.7574083
  23.0430113   9.5161673  25.8384083  24.2140113   9.5451673  26.5504083
  23.8120113   9.6571673  25.8864083  20.6420113  16.4401673  16.6434083
  21.0810113  15.7431673  16.9314083  20.8490113  17.0641673  17.2164083
  20.7380113  16.4291673  16.7704083  17.7380113   9.4031673  28.0734083
  18.4600113   9.8911673  28.0364083  17.4680113   9.3731673  27.2444083
  17.8050113   9.4711673  27.9454083  20.9680113   4.5741673  24.8084083
  21.8140113   4.3841673  24.9064083  20.5980113   3.7971673  24.6704083
  21.0380113   4.4311673  24.8024083  33.5850113  16.1581673  19.1354083
  34.2790113  15.6911673  18.8874083  33.0460113  15.5601673  19.4724083
  33.6080113  16.0001673  19.1484083  15.7890113   5.9121673  21.4634083
  16.2780113   5.6201673  22.1244083  15.9180113   5.3191673  20.8364083
  15.8800113   5.7811673  21.4684083  30.8240113   8.9341673  28.3144083
  30.8170113   8.1581673  28.7124083  29.9830113   9.1681673  28.3074083
  30.6990113   8.8541673  28.3724083  20.3140113   7.3461673  16.9494083
  19.7040113   6.9411673  17.4234083  19.9280113   7.4641673  16.1764083
  20.1670113   7.3031673  16.9054083  17.1330113  10.4551673  32.3514083
  16.7120113   9.9371673  31.7904083  16.7810113  11.2411673  32.2084083
  17.0190113  10.4951673  32.2474083  32.0800113   9.0051673  25.7514083
  31.7940113   9.4061673  26.4714083  32.9400113   8.9431673  25.8784083
  32.1650113   9.0551673  25.8764083  21.7690113   5.8071673  19.6594083
  22.0410113   6.6331673  19.7264083  20.9060113   5.8821673  19.5634083
  21.6820113   5.9401673  19.6544083  29.7420113   2.9291673  34.2914083
  29.2170113   3.3881673  34.8154083  29.3810113   2.1341673  34.2854083
  29.6110113   2.8791673  34.3674083  15.2490113   1.7771673  26.1954083
  15.2930113   2.1211673  25.3944083  16.0040113   2.0141673  26.5624083
  15.3670113   1.8631673  26.1314083  33.2110113  14.6381673  26.2804083
  33.5010113  14.8951673  25.4994083  33.9060113  14.7341673  26.7994083
  33.3570113  14.6901673  26.2414083  28.2340113   6.4981673  34.3674083
  28.3070113   6.6021673  35.2304083  27.6000113   7.0561673  34.1464083
  28.1510113   6.5961673  34.4624083  30.5020113   6.8171673  32.7324083
  30.8210113   7.6031673  32.9354083  30.1320113   6.5471673  33.4754083
  30.4950113   6.8931673  32.8724083  29.8160113  13.2411673  18.2624083
  30.1500113  12.4351673  18.2974083  29.0610113  13.1691673  18.6924083
  29.7540113  13.1111673  18.3314083  30.2980113   5.0751673  23.9214083
  29.5530113   4.7521673  24.2394083  30.3000113   5.9011673  24.2014083
  30.1880113   5.1491673  24.0094083  33.2000113   7.3591673  35.4674083
  33.1480113   7.0181673  34.6664083  33.9370113   7.8261673  35.4454083
  33.3010113   7.3781673  35.3454083  32.7380113  11.0351673  31.6734083
  33.3660113  10.4861673  31.4174083  32.6770113  11.6001673  31.0114083
  32.8220113  11.0381673  31.5374083  27.1900113  11.1161673  17.6654083
  27.8740113  10.6021673  17.4964083  26.7730113  11.1621673  16.9004083
  27.2290113  11.0471673  17.5274083  21.8720113  12.2661673  28.9694083
  21.5740113  12.8581673  29.5364083  21.9270113  12.7081673  28.2204083
  21.8360113  12.4191673  28.9424083  19.8510113  11.2161673  32.3674083
  19.0450113  10.9261673  32.5344083  19.7620113  12.0841673  32.3734083
  19.7190113  11.3011673  32.3924083  24.3880113   8.6891673  28.4604083
  24.8640113   9.0631673  29.0884083  23.5650113   8.8231673  28.7194083
  24.3370113   8.7641673  28.5914083  21.0980113   4.2921673  31.2014083
  21.2590113   3.5481673  31.6284083  21.0530113   4.0431673  30.3664083
  21.1150113   4.1451673  31.1414083  23.6520113  16.0821673  23.6884083
  24.1980113  16.7611673  23.7424083  23.3020113  16.1641673  22.8934083
  23.6810113  16.1951673  23.5784083  21.8350113  14.3101673  27.0774083
  21.2110113  14.8921673  26.8954083  22.0830113  14.0241673  26.2914083
  21.7790113  14.3541673  26.9344083  26.1440113  10.9441673  34.0664083
  26.9010113  11.2301673  33.7404083  25.5970113  10.9961673  33.3884083
  26.1750113  10.9941673  33.9174083  30.0530113  13.4941673  32.5704083
  30.3990113  13.7641673  33.3244083  30.3470113  14.0761673  31.9904083
  30.1480113  13.6201673  32.5964083  31.9160113   5.6401673  17.9094083
  32.2940113   6.3171673  17.5094083  31.0740113   5.8641673  17.9404083
  31.8470113   5.7731673  17.8544083  23.4290113   9.0861673  16.9924083
  22.6240113   8.9091673  16.7074083  23.3960113   9.9371673  17.1844083
  23.3050113   9.1851673  16.9794083  19.3590113   5.1531673  27.1424083
  19.7990113   5.0501673  26.3964083  19.9040113   4.8401673  27.7474083
  19.5040113   5.0921673  27.1214083  27.3750113   4.2551673  32.7344083
  26.7270113   4.7251673  33.0824083  27.9400113   4.1661673  33.3934083
  27.3630113   4.3111673  32.8834083  27.0630113   5.7921673  29.0324083
  27.3650113   6.2121673  29.7354083  27.0990113   4.9521673  29.2644083
  27.1130113   5.7301673  29.1704083  24.4880113  15.9591673  32.9574083
  24.9660113  15.3591673  32.5414083  24.1370113  15.5161673  33.6224083
  24.5070113  15.8051673  32.9944083  29.6110113   5.2391673  21.2844083
  29.8180113   5.0381673  22.1084083  30.3670113   5.5071673  20.9424083
  29.7530113   5.2491673  21.3554083  31.0760113   9.2661673  21.1384083
  31.5520113   8.5371673  21.0904083  30.2550113   8.9801673  21.0624083
  31.0250113   9.1161673  21.1194083  24.5470113  11.1781673  31.9774083
  23.7520113  11.1141673  32.3284083  24.6180113  12.0251673  31.7824083
  24.4400113  11.2931673  32.0004083  20.3770113  17.3851673  27.2944083
  20.3880113  17.4441673  28.1644083  19.9520113  16.6381673  27.1444083
  20.3160113  17.2831673  27.4004083  18.5350113   3.2801673  20.4494083
  18.6610113   2.9511673  19.6514083  17.7230113   3.0311673  20.6484083
  18.4340113   3.1951673  20.3614083  27.2920113  10.4331673  23.4934083
  27.3680113  10.7741673  24.2924083  27.4610113   9.5861673  23.6144083
  27.3280113  10.3581673  23.6294083  24.8140113   9.7071673  23.0584083
  24.5160113   9.3921673  23.8154083  25.5090113  10.1801673  23.2934083
  24.8730113   9.7301673  23.2054083  25.0360113  13.8251673  31.0854083
  25.7230113  13.7111673  31.6104083  25.1700113  14.6161673  30.7414083
  25.1570113  13.9251673  31.1124083  33.2120113   6.4341673  32.8964083
  32.3570113   6.3121673  33.0224083  33.3650113   6.0391673  32.1334083
  33.1080113   6.3571673  32.8024083  27.7250113   7.0991673  31.4724083
  27.4700113   6.3801673  31.8944083  28.5460113   7.2151673  31.7424083
  27.8090113   7.0101673  31.5744083  17.1410113  16.8831673  32.7364083
  16.4870113  16.3141673  32.8344083  16.7660113  17.6561673  32.8874083
  16.9890113  16.9131673  32.7734083  25.6590113   8.2891673  34.6594083
  25.9820113   8.9751673  34.2274083  24.9550113   8.6121673  35.0614083
  25.6020113   8.4381673  34.6544083  28.7430113  16.6631673  25.5884083
  28.2920113  17.3061673  25.9674083  29.4510113  16.5841673  26.0934083
  28.7810113  16.7461673  25.7194083  25.4440113  11.7531673  28.5184083
  24.7500113  12.1551673  28.8614083  26.1210113  12.1861673  28.8574083
  25.4410113  11.8761673  28.6194083  30.8210113  14.3461673  35.0984083
  31.5970113  13.9561673  35.1814083  30.3520113  14.0101673  35.7534083
  30.8660113  14.2391673  35.2074083  18.5120113   5.2911673  30.8654083
  18.8870113   5.9101673  30.3784083  19.1860113   4.8171673  31.1504083
  18.6670113   5.3131673  30.8354083  16.2870113   3.7391673  30.1404083
  16.3640113   3.5701673  29.2874083  17.0330113   4.1451673  30.3374083
  16.4080113   3.7741673  30.0434083  31.8460113   6.3791673  20.5804083
  31.9490113   6.3211673  19.7164083  32.5870113   6.0471673  20.8984083
  31.9710113   6.3221673  20.4994083  25.7660113  13.3441673  21.6874083
  25.5610113  14.1771673  21.5284083  24.9910113  12.9621673  21.8094083
  25.6210113  13.4111673  21.6824083  30.9480113   6.5251673  29.9364083
  30.9460113   5.6621673  30.0604083  31.0150113   6.8491673  30.7434083
  30.9580113   6.4451673  30.0734083  15.6840113   8.9651673  30.3644083
  16.0040113   9.1841673  29.5834083  15.5840113   8.1001673  30.3094083
  15.7160113   8.8701673  30.2414083  17.1400113   4.9011673  16.9824083
  16.4680113   4.9151673  17.5384083  17.2350113   4.0531673  16.7984083
  17.0550113   4.7781673  17.0374083  21.1280113  13.6061673  18.0964083
  21.5690113  13.6861673  18.8444083  20.3230113  13.3901673  18.3544083
  21.0740113  13.5861673  18.2454083  29.4190113   2.0311673  27.3724083
  30.2740113   2.1301673  27.5174083  29.0500113   2.5841673  27.9374083
  29.4910113   2.1281673  27.4774083  20.4470113   8.2571673  31.7494083
  20.0510113   9.0311673  31.8244083  20.0410113   7.8841673  31.0734083
  20.3290113   8.3161673  31.6604083  29.7230113   7.3111673  25.8634083
  30.3890113   7.8521673  26.0234083  29.3780113   7.6221673  25.1244083
  29.7700113   7.4371673  25.7784083  30.0360113  15.3771673  21.6704083
  29.8620113  14.7231673  22.2204083  30.7490113  15.1061673  21.2474083
  30.1160113  15.2401673  21.6894083  18.4570113  12.6761673  18.6974083
  18.2130113  12.3691673  19.4774083  18.4240113  11.9731673  18.1814083
  18.4160113  12.5271673  18.7364083  21.2760113  10.9211673  17.4404083
  20.4580113  10.6531673  17.5804083  21.2480113  11.7731673  17.6254083
  21.1510113  11.0081673  17.4884083  27.7110113  12.8301673  29.3614083
  27.9170113  13.1311673  30.1534083  27.6500113  13.5521673  28.8764083
  27.7320113  12.9811673  29.4064083  27.2450113  17.0441673  33.6074083
  26.4920113  17.0261673  33.1664083  27.4130113  17.8961673  33.6914083
  27.1590113  17.1671673  33.5544083  22.4820113   6.3111673  32.7774083
  22.1600113   5.7351673  32.2074083  22.1230113   7.0661673  32.5314083
  22.3820113   6.3371673  32.6574083  32.5230113  11.4691673  28.8194083
  32.4910113  10.6071673  28.6844083  31.8300113  11.7711673  28.3854083
  32.4160113  11.3861673  28.7354083  20.9170113  16.6671673  33.0254083
  20.9580113  16.7931673  33.8884083  21.5680113  16.1071673  32.8694083
  21.0190113  16.6031673  33.1304083  30.6280113  14.7291673  27.6164083
  31.1550113  14.6461673  26.9254083  30.2370113  13.9511673  27.6704083
  30.6480113  14.6021673  27.5224083  18.5100113  15.0501673  34.3854083
  19.1050113  15.4811673  34.8574083  18.1460113  15.6741673  33.8964083
  18.5440113  15.2061673  34.3824083  26.5010113   5.9811673  24.3174083
  27.0520113   5.3741673  24.6174083  26.0760113   6.2441673  25.0324083
  26.5200113   5.9301673  24.4664083  16.7490113   4.6311673  23.8034083
  16.3810113   4.9331673  24.5344083  17.2830113   4.0021673  24.0874083
  16.7730113   4.5831673  23.9534083  16.4370113  13.0391673  31.3144083
  15.8630113  13.4551673  31.8234083  17.1700113  13.5041673  31.4094083
  16.4610113  13.1691673  31.4034083  28.4710113   7.8121673  20.8794083
  28.5390113   6.9621673  21.0604083  27.6480113   7.8981673  20.6014083
  28.3590113   7.6991673  20.8654083  18.2230113  16.3061673  20.0894083
  18.0780113  16.4621673  19.2434083  19.0890113  16.3851673  20.1674083
  18.3300113  16.3411673  19.9764083  22.3900113   8.7031673  19.8174083
  22.4900113   8.8421673  18.9624083  23.2080113   8.6431673  20.1134083
  22.5250113   8.7141673  19.7344083  31.5500113  16.7671673  17.2974083
  32.1870113  16.6331673  17.8784083  31.2090113  15.9731673  17.1804083
  31.5940113  16.6301673  17.3654083  31.7450113   9.1851673  34.0304083
  32.3790113   9.0151673  34.6044083  32.1620113   9.5881673  33.3784083
  31.9000113   9.2201673  34.0194083  27.6250113  13.0321673  19.6194083
  27.3740113  12.9041673  20.4454083  27.3080113  12.3371673  19.1984083
  27.5410113  12.9111673  19.6794083  32.3700113   3.7491673  34.7684083
  32.1740113   4.3931673  35.3234083  31.6480113   3.2591673  34.7604083
  32.2350113   3.7721673  34.8494083  32.2690113   4.6901673  27.7394083
  31.4360113   4.9401673  27.6674083  32.2130113   3.8501673  27.9684083
  32.1380113   4.6031673  27.7624083  29.1560113   9.2961673  35.3854083
  30.0270113   9.2601673  35.3494083  28.9370113   9.7161673  34.6534083
  29.2530113   9.3521673  35.2724083  18.9100113  15.1211673  26.5664083
  18.8310113  14.3111673  26.2504083  18.4660113  15.6081673  25.9944083
  18.8330113  15.0731673  26.4354083  24.5110113  11.2401673  19.0494083
  25.2280113  10.8931673  18.6934083  24.4770113  12.0401673  18.7014083
  24.6120113  11.3071673  18.9454083  16.4820113  17.3651673  30.1474083
  16.9750113  17.3091673  30.8654083  16.6700113  16.6321673  29.7124083
  16.5830113  17.2481673  30.1894083  25.7290113   6.7971673   7.9591673
  25.2050113   7.3931673   8.3221673  26.1260113   6.4291673   8.6431673
  25.7100113   6.8311673   8.1141673  15.5980113  10.9371673   3.4151673
  15.1570113  11.0551673   4.1581673  15.3150113  10.1621673   3.1301673
  15.4910113  10.8401673   3.4831673  28.4000113   7.8641673   4.6351673
  28.4800113   7.8681673   3.7661673  27.8160113   7.2321673   4.7841673
  28.3250113   7.7711673   4.5291673  18.1070113  11.6331673   2.4941673
  18.7150113  11.4631673   3.0971673  17.3560113  11.4931673   2.9151673
  18.0860113  11.5871673   2.6451673  15.5380113  13.6721673   9.6701673
  15.6670113  13.3921673  10.4861673  14.9280113  13.1311673   9.3611673
  15.4670113  13.5511673   9.7451673  22.1120113  11.1971673  14.7371673
  21.8760113  11.1941673  15.5771673  21.3640113  11.0491673  14.3131673
  21.9660113  11.1741673  14.7981673  16.9840113   8.1931673   3.8721673
  16.5220113   7.8011673   3.2451673  17.6840113   7.6801673   3.9641673
  17.0190113   8.0601673   3.7931673  21.4920113   3.8031673   9.2191673
  22.1700113   3.8211673   8.6701673  21.4470113   2.9671673   9.4641673
  21.5850113   3.6821673   9.1741673  22.0940113  14.3891673  12.0001673
  22.2320113  15.1491673  11.5931673  22.8850113  14.0241673  12.0271673
  22.2310113  14.4481673  11.9441673  18.9850113   6.2931673   3.8951673
  19.8020113   6.1061673   4.1381673  18.5080113   5.6791673   4.2911673
  19.0350113   6.1751673   3.9901673  23.1890113  12.2741673   6.5051673
  23.5370113  11.4751673   6.5351673  23.8540113  12.7781673   6.2501673
  23.3390113  12.2301673   6.4721673  23.2460113  11.7231673   2.7161673
  23.5770113  11.0791673   3.2021673  23.4860113  11.5121673   1.9051673
  23.3300113  11.5971673   2.6681673  25.2140113   5.8541673  14.0551673
  24.3660113   5.7551673  13.8771673  25.2430113   6.5991673  14.5091673
  25.0930113   5.9501673  14.0961673  15.4400113   5.9541673   6.8851673
  15.1840113   6.7851673   6.8101673  14.7760113   5.5711673   7.3021673
  15.3040113   6.0201673   6.9361673  15.3500113  15.6641673   4.7851673
  14.7580113  16.2221673   4.4721673  15.7760113  15.3951673   4.0731673
  15.3260113  15.7061673   4.6341673  21.1900113  13.5081673   2.2651673
  20.6110113  13.2331673   2.8571673  21.8140113  12.8991673   2.2901673
  21.1970113  13.3781673   2.3561673  25.5010113  16.1881673   1.7771673
  25.7150113  16.7151673   2.4391673  26.2680113  16.0141673   1.3981673
  25.6460113  16.2401673   1.8191673  21.7750113   2.9041673  16.6741673
  21.8920113   2.4501673  15.9381673  22.0630113   3.7021673  16.4711673
  21.8350113   2.9551673  16.5351673  16.8950113  14.3341673   2.7161673
  17.5510113  13.7591673   2.7311673  17.2840113  15.0831673   2.4951673
  17.0500113  14.3591673   2.6861673  32.6280113   3.4281673   3.9781673
  32.2820113   4.1061673   4.4041673  31.9920113   2.8301673   3.9941673
  32.4830113   3.4401673   4.0431673  27.9400113  16.1981673  10.0821673
  28.6840113  16.6541673  10.0721673  27.8190113  15.9841673   9.2451673
  28.0320113  16.2341673   9.9571673  17.5080113   2.5011673  15.6581673
  16.7300113   2.1111673  15.5861673  17.9990113   2.0891673  15.0671673
  17.4650113   2.3821673  15.5601673  17.7130113  12.8211673   6.2161673
  18.1360113  12.4651673   5.5421673  18.0370113  12.3991673   6.9081673
  17.8230113  12.7061673   6.2191673  20.9440113  15.6731673   5.5121673
  21.7880113  15.7771673   5.3171673  20.6470113  16.4911673   5.5801673
  21.0250113  15.8091673   5.4931673  24.7510113   5.0701673   3.5991673
  25.0380113   4.8381673   2.8091673  25.4830113   5.1491673   4.0681673
  24.9010113   5.0471673   3.5521673  19.9420113  16.8921673  11.2521673
  20.2340113  16.8251673  12.0721673  19.3160113  16.2871673  11.2071673
  19.8930113  16.7931673  11.3671673  14.8560113   3.0491673  13.2441673
  14.8520113   3.6361673  13.8901673  15.4500113   3.3611673  12.6871673
  14.9430113   3.1821673  13.2571673  27.1940113  13.3831673  13.7861673
  27.1600113  13.7651673  14.5701673  28.0480113  13.3411673  13.6151673
  27.3150113  13.4331673  13.8771673  15.7930113   2.6441673   2.1591673
  15.6790113   1.7801673   2.1901673  15.3180113   2.9381673   2.8291673
  15.7060113   2.5601673   2.2621673  17.9350113  15.0541673  10.3741673
  17.2370113  14.5461673  10.5001673  18.1950113  14.8491673   9.5661673
  17.8700113  14.9491673  10.2731673  25.6460113  16.5471673  11.2841673
  26.4140113  16.4671673  10.8781673  25.0630113  16.4261673  10.6461673
  25.6730113  16.5171673  11.1301673  31.9230113  17.1501673   4.1851673
  31.4680113  17.8671673   4.3861673  31.3090113  16.5791673   3.9431673
  31.7650113  17.1721673   4.1791673  23.6950113   3.1601673   5.3171673
  23.7690113   3.7281673   4.6591673  23.8160113   3.6521673   6.0271673
  23.7230113   3.3171673   5.3251673  28.9200113  12.9951673   3.7291673
  29.6210113  12.5131673   3.9181673  28.2600113  12.4261673   3.7741673
  28.9260113  12.8401673   3.7631673  19.2960113  13.9051673  12.9411673
  20.1370113  13.9681673  12.7191673  19.2590113  14.3021673  13.7171673
  19.4150113  13.9731673  13.0231673  21.2590113   9.4161673   7.6901673
  21.4310113   9.2061673   8.5191673  20.6040113   8.8821673   7.4741673
  21.1880113   9.3061673   7.7811673  27.4870113   3.3301673  11.2051673
  27.3920113   3.6491673  12.0111673  26.8940113   2.6911673  11.1671673
  27.3850113   3.2821673  11.3191673  22.0090113   9.3541673  10.2801673
  22.0620113  10.2011673  10.4821673  21.7240113   8.9841673  11.0171673
  21.9750113   9.4241673  10.4181673  28.1860113  10.0491673   9.4101673
  27.6720113   9.6371673   9.9811673  28.0600113  10.8931673   9.5911673
  28.0920113  10.1131673   9.5211673  14.8300113  13.7251673  16.4911673
  15.5860113  14.0741673  16.7491673  15.0070113  12.8721673  16.4341673
  14.9680113  13.6501673  16.5211673  31.2070113   3.5101673  12.3491673
  31.9790113   3.2851673  12.6861673  30.7320113   3.7271673  13.0491673
  31.2510113   3.5091673  12.5021673  18.7510113   2.7931673   5.3191673
  19.0230113   2.3631673   4.6111673  18.5750113   2.1571673   5.8901673
  18.7650113   2.6361673   5.2991673  18.5750113  10.2201673   4.8681673
  19.4260113  10.1401673   4.6951673  18.2180113   9.5381673   4.4561673
  18.6480113  10.1071673   4.7811673  17.3420113  16.9451673   6.1051673
  16.6690113  16.4471673   5.8601673  17.7450113  17.1301673   5.3541673
  17.3020113  16.8991673   5.9581673  16.8920113   3.8951673   8.4011673
  17.7350113   4.1151673   8.3581673  16.5030113   4.4681673   7.8701673
  16.9590113   4.0121673   8.3161673  33.6730113  14.9971673  13.7911673
  32.9910113  15.3071673  13.3441673  33.3040113  14.5391673  14.4361673
  33.5170113  14.9751673  13.8201673  20.9430113  10.2271673   3.1031673
  21.6560113  10.7221673   3.1931673  21.1650113   9.6601673   2.4771673
  21.0810113  10.2161673   3.0241673  15.0990113  11.8701673   6.4231673
  14.4320113  12.3581673   6.6991673  15.7790113  12.4151673   6.4521673
  15.1010113  12.0221673   6.4681673  22.7460113   5.5801673  16.5191673
  22.2620113   6.1571673  16.9611673  22.7180113   5.8751673  15.6981673
  22.6700113   5.7091673  16.4631673  33.8440113   6.2641673  11.1311673
  34.0590113   5.4641673  10.8551673  32.9940113   6.3241673  10.9421673
  33.7500113   6.1551673  11.0621673  25.4660113  13.9301673   5.4301673
  24.9430113  14.5641673   5.1371673  25.7760113  13.5661673   4.7011673
  25.4340113  13.9701673   5.2791673  19.5410113  11.7181673   8.1901673
  20.0080113  12.0071673   8.8681673  20.1130113  11.2401673   7.7361673
  19.6950113  11.6901673   8.2231673  27.9770113   3.7321673   5.9271673
  28.3210113   3.8841673   6.7141673  27.5240113   2.9941673   6.0401673
  27.9610113   3.6451673   6.0601673  16.1070113   9.3881673   6.7341673
  16.5380113   9.2591673   5.9871673  15.9020113  10.2361673   6.7081673
  16.1400113   9.4941673   6.6201673  31.5070113  15.3791673  11.8811673
  30.8360113  15.8931673  12.0991673  31.5700113  15.4791673  11.0171673
  31.4170113  15.4701673  11.7861673  20.1910113  12.9041673   5.0161673
  20.3170113  13.7471673   5.2031673  20.8590113  12.5051673   5.4121673
  20.3090113  12.9701673   5.1021673  18.3210113   6.3871673  14.8781673
  17.7850113   5.8811673  15.3461673  18.3410113   5.9971673  14.0981673
  18.2440113   6.2541673  14.8321673  18.9730113   7.6141673   6.6171673
  18.1920113   7.5551673   6.2341673  19.0450113   6.8621673   7.0541673
  18.8680113   7.4951673   6.6251673  19.4030113   7.3511673  10.0851673
  19.4280113   6.6761673   9.5341673  18.7570113   7.8471673   9.7731673
  19.3120113   7.3241673   9.9581673  29.2980113   5.0641673   8.4811673
  28.6360113   5.3921673   8.9441673  29.4850113   5.6981673   7.9121673
  29.2280113   5.2061673   8.4651673  23.5030113  16.1281673   9.4771673
  23.2260113  15.4871673   8.9541673  23.2950113  16.8541673   9.0391673
  23.4320113  16.1411673   9.3351673  27.4910113   3.0331673   1.9921673
  27.9810113   3.7501673   1.9151673  26.7010113   3.2941673   1.7291673
  27.4470113   3.1771673   1.9421673  17.2020113   8.7061673  15.6441673
  17.1650113   9.2071673  14.9301673  17.5330113   7.9541673  15.3491673
  17.2450113   8.6681673  15.4951673  28.8050113  10.9111673  13.9021673
  29.2890113  11.6291673  14.0001673  29.1990113  10.4841673  13.2511673
  28.9350113  10.9541673  13.8201673  23.1010113  13.7561673  15.0791673
  23.4550113  13.5781673  15.8561673  22.6650113  13.0271673  14.8801673
  23.0890113  13.6221673  15.1651673  24.0730113   4.5031673   7.7171673
  24.5530113   5.2021673   7.9251673  24.4460113   3.8561673   8.1681673
  24.1990113   4.5111673   7.8141673  31.2340113  11.5421673   3.9721673
  31.5900113  11.1921673   4.6871673  31.2260113  10.8811673   3.4021673
  31.2860113  11.3921673   3.9931673  27.2790113  14.6081673   7.8161673
  26.6760113  14.3121673   7.2591673  27.8240113  15.0601673   7.3071673
  27.2700113  14.6311673   7.6581673  27.2920113  11.4591673   7.2161673
  26.4950113  11.6831673   7.4901673  27.5500113  10.8651673   7.8011673
  27.2120113  11.4041673   7.3431673  30.5520113   9.4571673  12.0621673
  30.6070113   9.5821673  11.2001673  31.3050113   9.7771673  12.3641673
  30.6710113   9.5221673  11.9791673  26.7430113  14.8061673  16.3391673
  26.9070113  15.0891673  17.1481673  27.0060113  15.4671673  15.8341673
  26.8060113  14.9461673  16.3841673  26.2830113   9.2631673  11.6621673
  26.1280113   9.8731673  12.2661673  26.8170113   8.7051673  12.0681673
  26.3390113   9.2711673  11.8111673  24.6670113   7.6631673   2.3201673
  24.7260113   8.3131673   2.8991673  24.4780113   6.9671673   2.8111673
  24.6480113   7.6561673   2.4781673  29.8930113  11.9921673   8.1891673
  29.4140113  12.2901673   7.5231673  29.5370113  11.2161673   8.3671673
  29.7700113  11.9211673   8.1171673  23.8900113   9.7101673   6.7511673
  23.0430113   9.5161673   6.8321673  24.2140113   9.5451673   7.5441673
  23.8120113   9.6571673   6.8801673  17.7380113   9.4031673   9.0671673
  18.4600113   9.8911673   9.0301673  17.4680113   9.3731673   8.2381673
  17.8050113   9.4711673   8.9391673  20.9680113   4.5741673   5.8021673
  21.8140113   4.3841673   5.9001673  20.5980113   3.7971673   5.6641673
  21.0380113   4.4311673   5.7961673  15.7890113   5.9121673   2.4571673
  16.2780113   5.6201673   3.1181673  15.9180113   5.3191673   1.8301673
  15.8800113   5.7811673   2.4621673  30.8240113   8.9341673   9.3081673
  30.8170113   8.1581673   9.7061673  29.9830113   9.1681673   9.3011673
  30.6990113   8.8541673   9.3661673  17.1330113  10.4551673  13.3451673
  16.7120113   9.9371673  12.7841673  16.7810113  11.2411673  13.2021673
  17.0190113  10.4951673  13.2411673  32.0800113   9.0051673   6.7451673
  31.7940113   9.4061673   7.4651673  32.9400113   8.9431673   6.8721673
  32.1650113   9.0551673   6.8701673  29.7420113   2.9291673  15.2851673
  29.2170113   3.3881673  15.8091673  29.3810113   2.1341673  15.2791673
  29.6110113   2.8791673  15.3611673  15.2490113   1.7771673   7.1891673
  15.2930113   2.1211673   6.3881673  16.0040113   2.0141673   7.5561673
  15.3670113   1.8631673   7.1251673  33.2110113  14.6381673   7.2741673
  33.5010113  14.8951673   6.4931673  33.9060113  14.7341673   7.7931673
  33.3570113  14.6901673   7.2351673  28.2340113   6.4981673  15.3611673
  28.3070113   6.6021673  16.2241673  27.6000113   7.0561673  15.1401673
  28.1510113   6.5961673  15.4561673  30.5020113   6.8171673  13.7261673
  30.8210113   7.6031673  13.9291673  30.1320113   6.5471673  14.4691673
  30.4950113   6.8931673  13.8661673  30.2980113   5.0751673   4.9151673
  29.5530113   4.7521673   5.2331673  30.3000113   5.9011673   5.1951673
  30.1880113   5.1491673   5.0031673  33.2000113   7.3591673  16.4611673
  33.1480113   7.0181673  15.6601673  33.9370113   7.8261673  16.4391673
  33.3010113   7.3781673  16.3391673  32.7380113  11.0351673  12.6671673
  33.3660113  10.4861673  12.4111673  32.6770113  11.6001673  12.0051673
  32.8220113  11.0381673  12.5311673  21.8720113  12.2661673   9.9631673
  21.5740113  12.8581673  10.5301673  21.9270113  12.7081673   9.2141673
  21.8360113  12.4191673   9.9361673  19.8510113  11.2161673  13.3611673
  19.0450113  10.9261673  13.5281673  19.7620113  12.0841673  13.3671673
  19.7190113  11.3011673  13.3861673  24.3880113   8.6891673   9.4541673
  24.8640113   9.0631673  10.0821673  23.5650113   8.8231673   9.7131673
  24.3370113   8.7641673   9.5851673  21.0980113   4.2921673  12.1951673
  21.2590113   3.5481673  12.6221673  21.0530113   4.0431673  11.3601673
  21.1150113   4.1451673  12.1351673  23.6520113  16.0821673   4.6821673
  24.1980113  16.7611673   4.7361673  23.3020113  16.1641673   3.8871673
  23.6810113  16.1951673   4.5721673  21.8350113  14.3101673   8.0711673
  21.2110113  14.8921673   7.8891673  22.0830113  14.0241673   7.2851673
  21.7790113  14.3541673   7.9281673  26.1440113  10.9441673  15.0601673
  26.9010113  11.2301673  14.7341673  25.5970113  10.9961673  14.3821673
  26.1750113  10.9941673  14.9111673  30.0530113  13.4941673  13.5641673
  30.3990113  13.7641673  14.3181673  30.3470113  14.0761673  12.9841673
  30.1480113  13.6201673  13.5901673  19.3590113   5.1531673   8.1361673
  19.7990113   5.0501673   7.3901673  19.9040113   4.8401673   8.7411673
  19.5040113   5.0921673   8.1151673  27.3750113   4.2551673  13.7281673
  26.7270113   4.7251673  14.0761673  27.9400113   4.1661673  14.3871673
  27.3630113   4.3111673  13.8771673  27.0630113   5.7921673  10.0261673
  27.3650113   6.2121673  10.7291673  27.0990113   4.9521673  10.2581673
  27.1130113   5.7301673  10.1641673  24.4880113  15.9591673  13.9511673
  24.9660113  15.3591673  13.5351673  24.1370113  15.5161673  14.6161673
  24.5070113  15.8051673  13.9881673  29.6110113   5.2391673   2.2781673
  29.8180113   5.0381673   3.1021673  30.3670113   5.5071673   1.9361673
  29.7530113   5.2491673   2.3491673  31.0760113   9.2661673   2.1321673
  31.5520113   8.5371673   2.0841673  30.2550113   8.9801673   2.0561673
  31.0250113   9.1161673   2.1131673  24.5470113  11.1781673  12.9711673
  23.7520113  11.1141673  13.3221673  24.6180113  12.0251673  12.7761673
  24.4400113  11.2931673  12.9941673  20.3770113  17.3851673   8.2881673
  20.3880113  17.4441673   9.1581673  19.9520113  16.6381673   8.1381673
  20.3160113  17.2831673   8.3941673  27.2920113  10.4331673   4.4871673
  27.3680113  10.7741673   5.2861673  27.4610113   9.5861673   4.6081673
  27.3280113  10.3581673   4.6231673  24.8140113   9.7071673   4.0521673
  24.5160113   9.3921673   4.8091673  25.5090113  10.1801673   4.2871673
  24.8730113   9.7301673   4.1991673  25.0360113  13.8251673  12.0791673
  25.7230113  13.7111673  12.6041673  25.1700113  14.6161673  11.7351673
  25.1570113  13.9251673  12.1061673  33.2120113   6.4341673  13.8901673
  32.3570113   6.3121673  14.0161673  33.3650113   6.0391673  13.1271673
  33.1080113   6.3571673  13.7961673  27.7250113   7.0991673  12.4661673
  27.4700113   6.3801673  12.8881673  28.5460113   7.2151673  12.7361673
  27.8090113   7.0101673  12.5681673  17.1410113  16.8831673  13.7301673
  16.4870113  16.3141673  13.8281673  16.7660113  17.6561673  13.8811673
  16.9890113  16.9131673  13.7671673  25.6590113   8.2891673  15.6531673
  25.9820113   8.9751673  15.2211673  24.9550113   8.6121673  16.0551673
  25.6020113   8.4381673  15.6481673  28.7430113  16.6631673   6.5821673
  28.2920113  17.3061673   6.9611673  29.4510113  16.5841673   7.0871673
  28.7810113  16.7461673   6.7131673  25.4440113  11.7531673   9.5121673
  24.7500113  12.1551673   9.8551673  26.1210113  12.1861673   9.8511673
  25.4410113  11.8761673   9.6131673  30.8210113  14.3461673  16.0921673
  31.5970113  13.9561673  16.1751673  30.3520113  14.0101673  16.7471673
  30.8660113  14.2391673  16.2011673  18.5120113   5.2911673  11.8591673
  18.8870113   5.9101673  11.3721673  19.1860113   4.8171673  12.1441673
  18.6670113   5.3131673  11.8291673  16.2870113   3.7391673  11.1341673
  16.3640113   3.5701673  10.2811673  17.0330113   4.1451673  11.3311673
  16.4080113   3.7741673  11.0371673  25.7660113  13.3441673   2.6811673
  25.5610113  14.1771673   2.5221673  24.9910113  12.9621673   2.8031673
  25.6210113  13.4111673   2.6761673  30.9480113   6.5251673  10.9301673
  30.9460113   5.6621673  11.0541673  31.0150113   6.8491673  11.7371673
  30.9580113   6.4451673  11.0671673  15.6840113   8.9651673  11.3581673
  16.0040113   9.1841673  10.5771673  15.5840113   8.1001673  11.3031673
  15.7160113   8.8701673  11.2351673  29.4190113   2.0311673   8.3661673
  30.2740113   2.1301673   8.5111673  29.0500113   2.5841673   8.9311673
  29.4910113   2.1281673   8.4711673  20.4470113   8.2571673  12.7431673
  20.0510113   9.0311673  12.8181673  20.0410113   7.8841673  12.0671673
  20.3290113   8.3161673  12.6541673  29.7230113   7.3111673   6.8571673
  30.3890113   7.8521673   7.0171673  29.3780113   7.6221673   6.1181673
  29.7700113   7.4371673   6.7721673  30.0360113  15.3771673   2.6641673
  29.8620113  14.7231673   3.2141673  30.7490113  15.1061673   2.2411673
  30.1160113  15.2401673   2.6831673  27.7110113  12.8301673  10.3551673
  27.9170113  13.1311673  11.1471673  27.6500113  13.5521673   9.8701673
  27.7320113  12.9811673  10.4001673  27.2450113  17.0441673  14.6011673
  26.4920113  17.0261673  14.1601673  27.4130113  17.8961673  14.6851673
  27.1590113  17.1671673  14.5481673  22.4820113   6.3111673  13.7711673
  22.1600113   5.7351673  13.2011673  22.1230113   7.0661673  13.5251673
  22.3820113   6.3371673  13.6511673  32.5230113  11.4691673   9.8131673
  32.4910113  10.6071673   9.6781673  31.8300113  11.7711673   9.3791673
  32.4160113  11.3861673   9.7291673  20.9170113  16.6671673  14.0191673
  20.9580113  16.7931673  14.8821673  21.5680113  16.1071673  13.8631673
  21.0190113  16.6031673  14.1241673  30.6280113  14.7291673   8.6101673
  31.1550113  14.6461673   7.9191673  30.2370113  13.9511673   8.6641673
  30.6480113  14.6021673   8.5161673  18.5100113  15.0501673  15.3791673
  19.1050113  15.4811673  15.8511673  18.1460113  15.6741673  14.8901673
  18.5440113  15.2061673  15.3761673  26.5010113   5.9811673   5.3111673
  27.0520113   5.3741673   5.6111673  26.0760113   6.2441673   6.0261673
  26.5200113   5.9301673   5.4601673  16.7490113   4.6311673   4.7971673
  16.3810113   4.9331673   5.5281673  17.2830113   4.0021673   5.0811673
  16.7730113   4.5831673   4.9471673  16.4370113  13.0391673  12.3081673
  15.8630113  13.4551673  12.8171673  17.1700113  13.5041673  12.4031673
  16.4610113  13.1691673  12.3971673  28.4710113   7.8121673   1.8731673
  28.5390113   6.9621673   2.0541673  27.6480113   7.8981673   1.5951673
  28.3590113   7.6991673   1.8591673  31.7450113   9.1851673  15.0241673
  32.3790113   9.0151673  15.5981673  32.1620113   9.5881673  14.3721673
  31.9000113   9.2201673  15.0131673  32.3700113   3.7491673  15.7621673
  32.1740113   4.3931673  16.3171673  31.6480113   3.2591673  15.7541673
  32.2350113   3.7721673  15.8431673  32.2690113   4.6901673   8.7331673
  31.4360113   4.9401673   8.6611673  32.2130113   3.8501673   8.9621673
  32.1380113   4.6031673   8.7561673  29.1560113   9.2961673  16.3791673
  30.0270113   9.2601673  16.3431673  28.9370113   9.7161673  15.6471673
  29.2530113   9.3521673  16.2661673  18.9100113  15.1211673   7.5601673
  18.8310113  14.3111673   7.2441673  18.4660113  15.6081673   6.9881673
  18.8330113  15.0731673   7.4291673  16.4820113  17.3651673  11.1411673
  16.9750113  17.3091673  11.8591673  16.6700113  16.6321673  10.7061673
  16.5830113  17.2481673  11.1831673   7.0551673  55.3154913  79.3131313
   6.8101673  55.8034913  78.6331313   7.9181673  55.2424913  79.2131313
   7.1461673  55.3764913  79.1981313   6.8641673  62.2314913  83.9841313
   6.3401673  62.8274913  84.3471313   7.2611673  61.8634913  84.6681313
   6.8451673  62.2654913  84.1391313  13.0081673  69.6724913  76.9551313
  13.7091673  69.1534913  76.9511313  12.4211673  69.2274913  76.4861313
  13.0251673  69.5294913  76.8851313   9.5351673  63.2984913  80.6601313
   9.6151673  63.3024913  79.7911313   8.9511673  62.6664913  80.8091313
   9.4601673  63.2054913  80.5541313   3.5241673  56.4024913  78.4681313
   3.4541673  57.0794913  77.9221313   4.2651673  56.0144913  78.2191313
   3.6231673  56.4454913  78.3501313   2.6271673  59.2374913  85.2441313
   3.3051673  59.2554913  84.6951313   2.5821673  58.4014913  85.4891313
   2.7201673  59.1164913  85.1991313   4.3241673  67.7084913  82.5301313
   4.6721673  66.9094913  82.5601313   4.9891673  68.2124913  82.2751313
   4.4741673  67.6644913  82.4971313   4.3811673  67.1574913  78.7411313
   4.7121673  66.5134913  79.2271313   4.6211673  66.9464913  77.9301313
   4.4651673  67.0314913  78.6931313   3.6961673  55.9634913  81.4091313
   3.7691673  56.8234913  81.5381313   3.6581673  55.8884913  80.5411313
   3.7011673  56.0794913  81.3001313   8.3691673  58.8894913  73.7081313
   7.9191673  59.5704913  74.0151313   8.4831673  58.3854913  74.4111313
   8.3201673  58.9154913  73.8571313   2.3251673  68.9424913  78.2901313
   1.7461673  68.6674913  78.8821313   2.9491673  68.3334913  78.3151313
   2.3321673  68.8124913  78.3811313  13.7631673  58.8624913  80.0031313
  13.4171673  59.5404913  80.4291313  13.1271673  58.2644913  80.0191313
  13.6181673  58.8744913  80.0681313   5.8861673  60.5044913  79.6241313
   6.1731673  60.2724913  78.8341313   6.6181673  60.5834913  80.0931313
   6.0361673  60.4814913  79.5771313   6.6081673  60.8434913  74.7451313
   6.8891673  61.6314913  74.9941313   5.8321673  61.0084913  74.3821313
   6.5351673  60.9844913  74.7281313  13.4381673  57.1854913  85.3721313
  14.1951673  57.2574913  84.9441313  13.5011673  56.4124913  85.7711313
  13.5591673  57.0824913  85.3671313   5.4671673  69.0144913  74.5611313
   5.2861673  69.5594913  75.2181313   6.2331673  69.3044913  74.2601313
   5.5531673  69.1384913  74.6141313   8.9741673  56.9104913  75.6151313
   9.5141673  56.2284913  75.6911313   9.0361673  57.3084913  76.3891313
   9.0631673  56.8684913  75.7411313   6.2321673  59.2864913  76.9291313
   5.7241673  58.6244913  76.6751313   6.2841673  59.7904913  76.2191313
   6.1651673  59.2634913  76.7871313   6.2321673  56.2274913  76.8201313
   5.7771673  55.8254913  76.1941313   7.0051673  56.3824913  76.4451313
   6.2791673  56.1914913  76.6721313   4.8301673  58.5944913  81.3421313
   4.9041673  59.1624913  80.6841313   4.9511673  59.0864913  82.0521313
   4.8581673  58.7514913  81.3501313  10.0551673  68.4294913  79.7541313
  10.7561673  67.9474913  79.9431313   9.3951673  67.8604913  79.7991313
  10.0611673  68.2744913  79.7881313   2.3941673  64.8504913  83.7151313
   2.5661673  64.6404913  84.5441313   1.7391673  64.3164913  83.4991313
   2.3231673  64.7404913  83.8061313   8.6221673  58.7644913  87.2301313
   8.5271673  59.0834913  88.0361313   8.0291673  58.1254913  87.1921313
   8.5201673  58.7164913  87.3441313   3.1441673  64.7884913  86.3051313
   3.1971673  65.6354913  86.5071313   2.8591673  64.4184913  87.0421313
   3.1101673  64.8584913  86.4431313   9.3211673  65.4834913  85.4351313
   8.8071673  65.0714913  86.0061313   9.1951673  66.3274913  85.6161313
   9.2271673  65.5474913  85.5461313   9.8781673  54.7084913  80.0661313
   9.9271673  54.3904913  80.8771313  10.2011673  54.0644913  79.5731313
   9.9331673  54.5664913  80.1131313  12.5741673  65.9224913  75.5621313
  12.6931673  65.6354913  76.3771313  13.3811673  65.9434913  75.2321313
  12.7101673  65.8834913  75.6341313  10.4691673  62.4594913  75.1471313
  10.2491673  63.1904913  74.7251313  10.0211673  62.5104913  75.8941313
  10.3701673  62.5744913  75.1951313   2.0781673  65.6614913  79.1281313
   2.7911673  66.1564913  79.2181313   2.3001673  65.0944913  78.5021313
   2.2161673  65.6504913  79.0491313  14.6561673  57.3204913  74.6001313
  13.9941673  56.7524913  74.6231313  14.4631673  57.8324913  73.9201313
  14.5301673  57.3124913  74.5031313  14.9791673  61.6984913  87.1561313
  15.1941673  60.8984913  86.8801313  14.1291673  61.7584913  86.9671313
  14.8851673  61.5894913  87.0871313  12.6581673  56.8784913  76.8791313
  13.4041673  56.4714913  77.0781313  12.9211673  57.5934913  76.4541313
  12.8071673  56.9244913  76.8461313   6.6011673  69.3644913  81.4551313
   6.0781673  69.9984913  81.1621313   6.9111673  69.0004913  80.7261313
   6.5691673  69.4044913  81.3041313   9.1121673  59.1664913  81.9521313
   9.4561673  59.3184913  82.7391313   8.6591673  58.4284913  82.0651313
   9.0961673  59.0794913  82.0851313   3.5881673  58.3864913  76.4091313
   3.5861673  58.2694913  75.5441313   3.4071673  59.2344913  76.5011313
   3.5611673  58.4944913  76.2951313  10.4331673  60.4984913  84.5061313
   9.7711673  60.8264913  84.9691313  10.6201673  61.1324913  83.9371313
  10.3631673  60.6404913  84.4901313   7.0781673  56.4044913  87.9351313
   7.2271673  55.5794913  87.6921313   7.4571673  56.4594913  88.7191313
   7.1561673  56.2904913  88.0151313   8.6261673  58.4674913  78.0171313
   9.1161673  59.1844913  77.9401313   7.8361673  58.7284913  77.7541313
   8.5821673  58.6114913  77.9671313   5.2081673  59.9374913  83.7421313
   5.6881673  60.6364913  83.9501313   5.5811673  59.2904913  84.1931313
   5.3341673  59.9454913  83.8391313   7.3971673  63.1064913  76.0161313
   7.3891673  63.8284913  75.5261313   6.7581673  63.2414913  76.5931313
   7.3021673  63.2334913  76.0291313  12.3691673  66.9764913  79.9971313
  12.7251673  66.6264913  80.7121313  12.3611673  66.3154913  79.4271313
  12.4211673  66.8264913  80.0181313   8.4141673  70.0424913  83.8411313
   7.8111673  69.7464913  83.2841313   8.9591673  70.4944913  83.3321313
   8.4051673  70.0654913  83.6831313   8.4271673  66.8934913  83.2411313
   7.6301673  67.1174913  83.5151313   8.6851673  66.2994913  83.8261313
   8.3471673  66.8384913  83.3681313  11.6871673  64.8914913  88.0871313
  11.7421673  65.0164913  87.2251313  12.4401673  65.2114913  88.3891313
  11.8061673  64.9564913  88.0041313   7.4181673  64.6974913  87.6871313
   7.2631673  65.3074913  88.2911313   7.9521673  64.1394913  88.0931313
   7.4741673  64.7054913  87.8361313   5.8021673  63.0974913  78.3451313
   5.8611673  63.7474913  78.9241313   5.6131673  62.4014913  78.8361313
   5.7831673  63.0904913  78.5031313  11.0281673  67.4264913  84.2141313
  10.5491673  67.7244913  83.5481313  10.6721673  66.6504913  84.3921313
  10.9051673  67.3554913  84.1421313   5.0251673  65.1444913  82.7761313
   4.1781673  64.9504913  82.8571313   5.3491673  64.9794913  83.5691313
   4.9471673  65.0914913  82.9051313   2.1031673  60.0084913  81.8271313
   2.9491673  59.8184913  81.9251313   1.7331673  59.2314913  81.6891313
   2.1731673  59.8654913  81.8211313  11.9591673  64.3684913  85.3331313
  11.9521673  63.5924913  85.7311313  11.1181673  64.6024913  85.3261313
  11.8341673  64.2884913  85.3911313  13.2151673  64.4394913  82.7701313
  12.9291673  64.8404913  83.4901313  14.0751673  64.3774913  82.8971313
  13.3001673  64.4894913  82.8951313   2.9041673  61.2414913  76.6781313
   3.1761673  62.0674913  76.7451313   2.0411673  61.3164913  76.5821313
   2.8171673  61.3744913  76.6731313  14.3461673  70.0724913  83.2991313
  14.6361673  70.3294913  82.5181313  15.0411673  70.1684913  83.8181313
  14.4921673  70.1244913  83.2601313  10.9511673  68.6754913  75.2811313
  11.2851673  67.8694913  75.3161313  10.1961673  68.6034913  75.7111313
  10.8891673  68.5454913  75.3501313  11.4331673  60.5094913  80.9401313
  10.6881673  60.1864913  81.2581313  11.4351673  61.3354913  81.2201313
  11.3231673  60.5834913  81.0281313  13.8731673  66.4694913  88.6921313
  14.5011673  65.9204913  88.4361313  13.8121673  67.0344913  88.0301313
  13.9571673  66.4724913  88.5561313   8.3251673  66.5504913  74.6841313
   9.0091673  66.0364913  74.5151313   7.9081673  66.5964913  73.9191313
   8.3641673  66.4814913  74.5461313   3.0071673  67.7004913  85.9881313
   2.7091673  68.2924913  86.5551313   3.0621673  68.1424913  85.2391313
   2.9711673  67.8534913  85.9611313  10.3451673  56.8394913  88.4011313
  11.0891673  57.2914913  88.3381313   9.7791673  57.3094913  87.9321313
  10.3721673  56.9764913  88.3231313   5.5231673  64.1234913  85.4791313
   5.9991673  64.4974913  86.1071313   4.7001673  64.2574913  85.7381313
   5.4721673  64.1984913  85.6101313   2.2331673  59.7264913  88.2201313
   2.3941673  58.9824913  88.6471313   2.1881673  59.4774913  87.3851313
   2.2501673  59.5794913  88.1601313  11.6301673  54.8194913  86.0711313
  11.3501673  55.6444913  86.0271313  12.3461673  54.8724913  86.5671313
  11.6951673  54.9494913  86.1381313   3.9851673  55.5344913  88.1001313
   4.6901673  55.8544913  87.6981313   4.2261673  54.7274913  88.3271313
   4.1241673  55.4624913  88.0741313   2.9701673  69.7444913  84.0961313
   2.3461673  70.3264913  83.9141313   3.2181673  69.4584913  83.3101313
   2.9141673  69.7884913  83.9531313  13.0511673  61.0744913  74.9281313
  13.4291673  61.7514913  74.5281313  12.2091673  61.2984913  74.9591313
  12.9821673  61.2074913  74.8731313   4.5641673  64.5204913  74.0111313
   3.7591673  64.3434913  73.7261313   4.5311673  65.3714913  74.2031313
   4.4401673  64.6194913  73.9981313   8.1981673  61.2264913  86.0511313
   8.5001673  61.6464913  86.7541313   8.2341673  60.3864913  86.2831313
   8.2481673  61.1644913  86.1891313  10.7461673  60.6734913  78.3031313
  10.9531673  60.4724913  79.1271313  11.5021673  60.9414913  77.9611313
  10.8881673  60.6834913  78.3741313   4.0411673  55.5724913  84.2081313
   3.2151673  55.4234913  84.4451313   4.0011673  55.6074913  83.3371313
   3.9131673  55.5554913  84.1141313  11.7681673  56.7564913  79.7771313
  11.0541673  56.2854913  79.9481313  11.6061673  57.0974913  78.9911313
  11.6391673  56.7374913  79.6861313  12.2111673  64.7004913  78.1571313
  12.6871673  63.9714913  78.1091313  11.3901673  64.4144913  78.0811313
  12.1601673  64.5504913  78.1381313   8.4271673  65.8674913  80.5121313
   8.5031673  66.2084913  81.3111313   8.5961673  65.0204913  80.6331313
   8.4631673  65.7924913  80.6481313   5.9491673  65.1414913  80.0771313
   5.6511673  64.8264913  80.8341313   6.6441673  65.6144913  80.3121313
   6.0081673  65.1644913  80.2241313   6.1711673  69.2594913  88.1041313
   6.8581673  69.1454913  88.6291313   6.3051673  70.0504913  87.7601313
   6.2921673  69.3594913  88.1311313   8.8601673  62.5334913  88.4911313
   8.6051673  61.8144913  88.9131313   9.6811673  62.6494913  88.7611313
   8.9441673  62.4444913  88.5931313   6.5791673  67.1874913  85.5371313
   5.8851673  67.5894913  85.8801313   7.2561673  67.6204913  85.8761313
   6.5761673  67.3104913  85.6381313  12.9811673  61.8134913  77.5991313
  13.0841673  61.7554913  76.7351313  13.7221673  61.4814913  77.9171313
  13.1061673  61.7564913  77.5181313   6.9011673  68.7784913  78.7061313
   6.6961673  69.6114913  78.5471313   6.1261673  68.3964913  78.8281313
   6.7561673  68.8454913  78.7011313  12.0831673  61.9594913  86.9551313
  12.0811673  61.0964913  87.0791313  12.1501673  62.2834913  87.7621313
  12.0931673  61.8794913  87.0921313   6.9561673  56.9494913  81.5911313
   6.2561673  57.4674913  81.5351313   6.9941673  56.5694913  80.8071313
   6.8581673  56.9704913  81.4671313   2.2631673  69.0404913  75.1151313
   2.7041673  69.1204913  75.8631313   1.4581673  68.8244913  75.3731313
   2.2091673  69.0204913  75.2641313  10.5541673  57.4654913  84.3911313
  11.4091673  57.5644913  84.5361313  10.1851673  58.0184913  84.9561313
  10.6261673  57.5624913  84.4961313  10.8581673  62.7454913  82.8821313
  11.5241673  63.2864913  83.0421313  10.5131673  63.0564913  82.1431313
  10.9051673  62.8714913  82.7971313   2.4111673  66.3554913  74.4591313
   1.5931673  66.0874913  74.5991313   2.3831673  67.2074913  74.6441313
   2.2861673  66.4424913  74.5071313  14.0291673  55.3034913  87.5471313
  13.9771673  55.2594913  88.4171313  14.7161673  54.8004913  87.3571313
  14.1231673  55.2234913  87.6471313   6.1141673  57.4164913  84.5921313
   5.3771673  56.9624913  84.7051313   6.6851673  57.0144913  85.1151313
   6.0891673  57.2894913  84.6861313   8.8461673  68.2644913  86.3801313
   9.0521673  68.5654913  87.1721313   8.7851673  68.9864913  85.8951313
   8.8671673  68.4154913  86.4251313   4.4131673  54.9974913  74.4231313
   4.4911673  55.2444913  73.5901313   3.6701673  55.3744913  74.6811313
   4.3151673  55.0894913  74.3381313  13.6581673  66.9034913  85.8381313
  13.6261673  66.0414913  85.7031313  12.9651673  67.2054913  85.4041313
  13.5511673  66.8204913  85.7541313  11.7631673  70.1634913  84.6351313
  12.2901673  70.0804913  83.9441313  11.3721673  69.3854913  84.6891313
  11.7831673  70.0364913  84.5411313   8.2771673  55.6074913  83.8431313
   8.9471673  56.1514913  83.9701313   7.7741673  56.0314913  83.2701313
   8.3021673  55.7504913  83.7771313   7.6361673  61.4154913  81.3361313
   8.1871673  60.8084913  81.6361313   7.2111673  61.6784913  82.0511313
   7.6551673  61.3644913  81.4851313   9.6061673  63.2464913  77.8981313
   9.6741673  62.3964913  78.0791313   8.7831673  63.3324913  77.6201313
   9.4941673  63.1334913  77.8841313   3.5251673  64.1374913  76.8361313
   3.6251673  64.2764913  75.9811313   4.3431673  64.0774913  77.1321313
   3.6601673  64.1484913  76.7531313   8.7601673  68.4664913  76.6381313
   8.5091673  68.3384913  77.4641313   8.4431673  67.7714913  76.2171313
   8.6761673  68.3454913  76.6981313  13.4041673  60.1244913  84.7581313
  12.5711673  60.3744913  84.6861313  13.3481673  59.2844913  84.9871313
  13.2731673  60.0374913  84.7811313   5.6461673  66.6744913  76.0681313
   6.3631673  66.3274913  75.7121313   5.6121673  67.4744913  75.7201313
   5.7471673  66.7414913  75.9641313   7.0551673  55.3154913  60.3068903
   6.8101673  55.8034913  59.6268903   7.9181673  55.2424913  60.2068903
   7.1461673  55.3764913  60.1918903   6.8641673  62.2314913  64.9778903
   6.3401673  62.8274913  65.3408903   7.2611673  61.8634913  65.6618903
   6.8451673  62.2654913  65.1328903  13.0081673  69.6724913  57.9488903
  13.7091673  69.1534913  57.9448903  12.4211673  69.2274913  57.4798903
  13.0251673  69.5294913  57.8788903   9.5351673  63.2984913  61.6538903
   9.6151673  63.3024913  60.7848903   8.9511673  62.6664913  61.8028903
   9.4601673  63.2054913  61.5478903   3.5241673  56.4024913  59.4618903
   3.4541673  57.0794913  58.9158903   4.2651673  56.0144913  59.2128903
   3.6231673  56.4454913  59.3438903   3.2471673  66.6314913  71.7558903
   3.0111673  66.6284913  72.5958903   2.4991673  66.4834913  71.3318903
   3.1011673  66.6084913  71.8168903   2.6271673  59.2374913  66.2378903
   3.3051673  59.2554913  65.6888903   2.5821673  58.4014913  66.4828903
   2.7201673  59.1164913  66.1928903   4.3241673  67.7084913  63.5238903
   4.6721673  66.9094913  63.5538903   4.9891673  68.2124913  63.2688903
   4.4741673  67.6644913  63.4908903   4.3811673  67.1574913  59.7348903
   4.7121673  66.5134913  60.2208903   4.6211673  66.9464913  58.9238903
   4.4651673  67.0314913  59.6868903   6.3491673  61.2884913  71.0738903
   5.5011673  61.1894913  70.8958903   6.3781673  62.0334913  71.5278903
   6.2281673  61.3844913  71.1148903  10.9071673  54.2484913  70.1878903
  10.7491673  55.0174913  69.8058903  10.1351673  54.0284913  70.5318903
  10.7691673  54.3294913  70.1828903   3.6961673  55.9634913  62.4028903
   3.7691673  56.8234913  62.5318903   3.6581673  55.8884913  61.5348903
   3.7011673  56.0794913  62.2938903   8.3691673  58.8894913  54.7018903
   7.9191673  59.5704913  55.0088903   8.4831673  58.3854913  55.4048903
   8.3201673  58.9154913  54.8508903   2.3251673  68.9424913  59.2838903
   1.7461673  68.6674913  59.8758903   2.9491673  68.3334913  59.3088903
   2.3321673  68.8124913  59.3748903   2.9101673  58.3384913  73.6928903
   3.0271673  57.8844913  72.9568903   3.1981673  59.1364913  73.4898903
   2.9701673  58.3894913  73.5538903  13.7631673  58.8624913  60.9968903
  13.4171673  59.5404913  61.4228903  13.1271673  58.2644913  61.0128903
  13.6181673  58.8744913  61.0618903   5.2921673  55.5784913  71.8448903
   5.4701673  54.7694913  71.5698903   5.1491673  56.0194913  71.1058903
   5.2971673  55.5244913  71.6948903   5.8861673  60.5044913  60.6178903
   6.1731673  60.2724913  59.8278903   6.6181673  60.5834913  61.0868903
   6.0361673  60.4814913  60.5708903   6.6081673  60.8434913  55.7388903
   6.8891673  61.6314913  55.9878903   5.8321673  61.0084913  55.3758903
   6.5351673  60.9844913  55.7218903  13.4381673  57.1854913  66.3658903
  14.1951673  57.2574913  65.9378903  13.5011673  56.4124913  66.7648903
  13.5591673  57.0824913  66.3608903   8.3291673  68.8174913  70.8048903
   8.2951673  69.1994913  71.5888903   9.1831673  68.7754913  70.6338903
   8.4501673  68.8674913  70.8958903   5.4671673  69.0144913  55.5548903
   5.2861673  69.5594913  56.2118903   6.2331673  69.3044913  55.2538903
   5.5531673  69.1384913  55.6078903   8.9741673  56.9104913  56.6088903
   9.5141673  56.2284913  56.6848903   9.0361673  57.3084913  57.3828903
   9.0631673  56.8684913  56.7348903   6.2321673  59.2864913  57.9228903
   5.7241673  58.6244913  57.6688903   6.2841673  59.7904913  57.2128903
   6.1651673  59.2634913  57.7808903   6.2321673  56.2274913  57.8138903
   5.7771673  55.8254913  57.1878903   7.0051673  56.3824913  57.4388903
   6.2791673  56.1914913  57.6658903   4.8301673  58.5944913  62.3358903
   4.9041673  59.1624913  61.6778903   4.9511673  59.0864913  63.0458903
   4.8581673  58.7514913  62.3438903  10.0551673  68.4294913  60.7478903
  10.7561673  67.9474913  60.9368903   9.3951673  67.8604913  60.7928903
  10.0611673  68.2744913  60.7818903   2.3941673  64.8504913  64.7088903
   2.5661673  64.6404913  65.5378903   1.7391673  64.3164913  64.4928903
   2.3231673  64.7404913  64.7998903   8.6221673  58.7644913  68.2238903
   8.5271673  59.0834913  69.0298903   8.0291673  58.1254913  68.1858903
   8.5201673  58.7164913  68.3378903   3.1441673  64.7884913  67.2988903
   3.1971673  65.6354913  67.5008903   2.8591673  64.4184913  68.0358903
   3.1101673  64.8584913  67.4368903   9.3211673  65.4834913  66.4288903
   8.8071673  65.0714913  66.9998903   9.1951673  66.3274913  66.6098903
   9.2271673  65.5474913  66.5398903   9.8781673  54.7084913  61.0598903
   9.9271673  54.3904913  61.8708903  10.2011673  54.0644913  60.5668903
   9.9331673  54.5664913  61.1068903  12.3421673  58.9444913  69.3678903
  13.1141673  58.7194913  69.7048903  11.8671673  59.1614913  70.0678903
  12.3861673  58.9434913  69.5208903  12.5741673  65.9224913  56.5558903
  12.6931673  65.6354913  57.3708903  13.3811673  65.9434913  56.2258903
  12.7101673  65.8834913  56.6278903  10.4691673  62.4594913  56.1408903
  10.2491673  63.1904913  55.7188903  10.0211673  62.5104913  56.8878903
  10.3701673  62.5744913  56.1888903   2.0781673  65.6614913  60.1218903
   2.7911673  66.1564913  60.2118903   2.3001673  65.0944913  59.4958903
   2.2161673  65.6504913  60.0428903  14.6561673  57.3204913  55.5938903
  13.9941673  56.7524913  55.6168903  14.4631673  57.8324913  54.9138903
  14.5301673  57.3124913  55.4968903   3.8811673  61.0144913  73.5378903
   3.3971673  61.5914913  73.9798903   3.8531673  61.3094913  72.7168903
   3.8051673  61.1434913  73.4818903  14.9791673  61.6984913  68.1498903
  15.1941673  60.8984913  67.8738903  14.1291673  61.7584913  67.9608903
  14.8851673  61.5894913  68.0808903  12.6581673  56.8784913  57.8728903
  13.4041673  56.4714913  58.0718903  12.9211673  57.5934913  57.4478903
  12.8071673  56.9244913  57.8398903   6.6011673  69.3644913  62.4488903
   6.0781673  69.9984913  62.1558903   6.9111673  69.0004913  61.7198903
   6.5691673  69.4044913  62.2978903   9.1121673  59.1664913  62.9458903
   9.4561673  59.3184913  63.7328903   8.6591673  58.4284913  63.0588903
   9.0961673  59.0794913  63.0788903   3.5881673  58.3864913  57.4028903
   3.5861673  58.2694913  56.5378903   3.4071673  59.2344913  57.4948903
   3.5611673  58.4944913  57.2888903  10.4331673  60.4984913  65.4998903
   9.7711673  60.8264913  65.9628903  10.6201673  61.1324913  64.9308903
  10.3631673  60.6404913  65.4838903   7.0781673  56.4044913  68.9288903
   7.2271673  55.5794913  68.6858903   7.4571673  56.4594913  69.7128903
   7.1561673  56.2904913  69.0088903   8.6261673  58.4674913  59.0108903
   9.1161673  59.1844913  58.9338903   7.8361673  58.7284913  58.7478903
   8.5821673  58.6114913  58.9608903   9.9401673  66.3454913  70.9208903
  10.4241673  67.0634913  71.0188903  10.3341673  65.9184913  70.2698903
  10.0701673  66.3884913  70.8388903   4.2361673  69.1904913  72.0978903
   4.5901673  69.0124913  72.8748903   3.8001673  68.4614913  71.8988903
   4.2241673  69.0564913  72.1838903   5.2081673  59.9374913  64.7358903
   5.6881673  60.6364913  64.9438903   5.5811673  59.2904913  65.1868903
   5.3341673  59.9454913  64.8328903   7.3971673  63.1064913  57.0098903
   7.3891673  63.8284913  56.5198903   6.7581673  63.2414913  57.5868903
   7.3021673  63.2334913  57.0228903  12.3691673  66.9764913  60.9908903
  12.7251673  66.6264913  61.7058903  12.3611673  66.3154913  60.4208903
  12.4211673  66.8264913  61.0118903   8.4141673  70.0424913  64.8348903
   7.8111673  69.7464913  64.2778903   8.9591673  70.4944913  64.3258903
   8.4051673  70.0654913  64.6768903   8.4271673  66.8934913  64.2348903
   7.6301673  67.1174913  64.5088903   8.6851673  66.2994913  64.8198903
   8.3471673  66.8384913  64.3618903  11.6871673  64.8914913  69.0808903
  11.7421673  65.0164913  68.2188903  12.4401673  65.2114913  69.3828903
  11.8061673  64.9564913  68.9978903  12.7191673  55.1894913  72.0678903
  12.0821673  54.7894913  71.6258903  12.7451673  54.7584913  72.8258903
  12.6291673  55.0674913  72.1138903   7.4181673  64.6974913  68.6808903
   7.2631673  65.3074913  69.2848903   7.9521673  64.1394913  69.0868903
   7.4741673  64.7054913  68.8298903   5.8021673  63.0974913  59.3388903
   5.8611673  63.7474913  59.9178903   5.6131673  62.4014913  59.8298903
   5.7831673  63.0904913  59.4968903  11.0281673  67.4264913  65.2078903
  10.5491673  67.7244913  64.5418903  10.6721673  66.6504913  65.3858903
  10.9051673  67.3554913  65.1358903   5.0251673  65.1444913  63.7698903
   4.1781673  64.9504913  63.8508903   5.3491673  64.9794913  64.5628903
   4.9471673  65.0914913  63.8988903   2.1031673  60.0084913  62.8208903
   2.9491673  59.8184913  62.9188903   1.7331673  59.2314913  62.6828903
   2.1731673  59.8654913  62.8148903  11.9591673  64.3684913  66.3268903
  11.9521673  63.5924913  66.7248903  11.1181673  64.6024913  66.3198903
  11.8341673  64.2884913  66.3848903  13.2151673  64.4394913  63.7638903
  12.9291673  64.8404913  64.4838903  14.0751673  64.3774913  63.8908903
  13.3001673  64.4894913  63.8888903   2.9041673  61.2414913  57.6718903
   3.1761673  62.0674913  57.7388903   2.0411673  61.3164913  57.5758903
   2.8171673  61.3744913  57.6668903  10.8771673  58.3634913  72.3038903
  10.3521673  58.8224913  72.8278903  10.5161673  57.5684913  72.2978903
  10.7461673  58.3134913  72.3798903  14.3461673  70.0724913  64.2928903
  14.6361673  70.3294913  63.5118903  15.0411673  70.1684913  64.8118903
  14.4921673  70.1244913  64.2538903   9.3691673  61.9324913  72.3798903
   9.4421673  62.0364913  73.2428903   8.7351673  62.4904913  72.1588903
   9.2861673  62.0304913  72.4748903  11.6371673  62.2514913  70.7448903
  11.9561673  63.0374913  70.9478903  11.2671673  61.9814913  71.4878903
  11.6301673  62.3274913  70.8848903  10.9511673  68.6754913  56.2748903
  11.2851673  67.8694913  56.3098903  10.1961673  68.6034913  56.7048903
  10.8891673  68.5454913  56.3438903  11.4331673  60.5094913  61.9338903
  10.6881673  60.1864913  62.2518903  11.4351673  61.3354913  62.2138903
  11.3231673  60.5834913  62.0218903  14.3351673  62.7934913  73.4798903
  14.2831673  62.4524913  72.6788903  15.0721673  63.2604913  73.4578903
  14.4361673  62.8124913  73.3578903  13.8731673  66.4694913  69.6858903
  14.5011673  65.9204913  69.4298903  13.8121673  67.0344913  69.0238903
  13.9571673  66.4724913  69.5498903   8.3251673  66.5504913  55.6778903
   9.0091673  66.0364913  55.5088903   7.9081673  66.5964913  54.9128903
   8.3641673  66.4814913  55.5398903   3.0071673  67.7004913  66.9818903
   2.7091673  68.2924913  67.5488903   3.0621673  68.1424913  66.2328903
   2.9711673  67.8534913  66.9548903  10.3451673  56.8394913  69.3948903
  11.0891673  57.2914913  69.3318903   9.7791673  57.3094913  68.9258903
  10.3721673  56.9764913  69.3168903   5.5231673  64.1234913  66.4728903
   5.9991673  64.4974913  67.1008903   4.7001673  64.2574913  66.7318903
   5.4721673  64.1984913  66.6038903   2.2331673  59.7264913  69.2138903
   2.3941673  58.9824913  69.6408903   2.1881673  59.4774913  68.3788903
   2.2501673  59.5794913  69.1538903  11.6301673  54.8194913  67.0648903
  11.3501673  55.6444913  67.0208903  12.3461673  54.8724913  67.5608903
  11.6951673  54.9494913  67.1318903   3.9851673  55.5344913  69.0938903
   4.6901673  55.8544913  68.6918903   4.2261673  54.7274913  69.3208903
   4.1241673  55.4624913  69.0678903   2.9701673  69.7444913  65.0898903
   2.3461673  70.3264913  64.9078903   3.2181673  69.4584913  64.3038903
   2.9141673  69.7884913  64.9468903   7.2791673  66.3784913  72.0788903
   8.0361673  66.6644913  71.7528903   6.7321673  66.4304913  71.4008903
   7.3101673  66.4284913  71.9298903  11.1881673  68.9284913  70.5828903
  11.5341673  69.1984913  71.3368903  11.4821673  69.5104913  70.0028903
  11.2831673  69.0544913  70.6088903  13.0511673  61.0744913  55.9218903
  13.4291673  61.7514913  55.5218903  12.2091673  61.2984913  55.9528903
  12.9821673  61.2074913  55.8668903   4.5641673  64.5204913  55.0048903
   3.7591673  64.3434913  54.7198903   4.5311673  65.3714913  55.1968903
   4.4401673  64.6194913  54.9918903   8.5101673  59.6894913  70.7468903
   7.8621673  60.1594913  71.0948903   9.0751673  59.6004913  71.4058903
   8.4981673  59.7454913  70.8958903   8.1981673  61.2264913  67.0448903
   8.5001673  61.6464913  67.7478903   8.2341673  60.3864913  67.2768903
   8.2481673  61.1644913  67.1828903  10.7461673  60.6734913  59.2968903
  10.9531673  60.4724913  60.1208903  11.5021673  60.9414913  58.9548903
  10.8881673  60.6834913  59.3678903   4.0411673  55.5724913  65.2018903
   3.2151673  55.4234913  65.4388903   4.0011673  55.6074913  64.3308903
   3.9131673  55.5554913  65.1078903  11.7681673  56.7564913  60.7708903
  11.0541673  56.2854913  60.9418903  11.6061673  57.0974913  59.9848903
  11.6391673  56.7374913  60.6798903  12.2111673  64.7004913  59.1508903
  12.6871673  63.9714913  59.1028903  11.3901673  64.4144913  59.0748903
  12.1601673  64.5504913  59.1318903   5.6821673  66.6124913  69.9898903
   4.8871673  66.5484913  70.3408903   5.7531673  67.4594913  69.7948903
   5.5751673  66.7274913  70.0128903   8.4271673  65.8674913  61.5058903
   8.5031673  66.2084913  62.3048903   8.5961673  65.0204913  61.6268903
   8.4631673  65.7924913  61.6418903   5.9491673  65.1414913  61.0708903
   5.6511673  64.8264913  61.8278903   6.6441673  65.6144913  61.3058903
   6.0081673  65.1644913  61.2178903   6.1711673  69.2594913  69.0978903
   6.8581673  69.1454913  69.6228903   6.3051673  70.0504913  68.7538903
   6.2921673  69.3594913  69.1248903  14.3471673  61.8684913  70.9088903
  13.4921673  61.7464913  71.0348903  14.5001673  61.4734913  70.1458903
  14.2431673  61.7914913  70.8148903   8.8601673  62.5334913  69.4848903
   8.6051673  61.8144913  69.9068903   9.6811673  62.6494913  69.7548903
   8.9441673  62.4444913  69.5868903   6.7941673  63.7234913  72.6718903
   7.1171673  64.4094913  72.2398903   6.0901673  64.0464913  73.0738903
   6.7371673  63.8724913  72.6668903   6.5791673  67.1874913  66.5308903
   5.8851673  67.5894913  66.8738903   7.2561673  67.6204913  66.8698903
   6.5761673  67.3104913  66.6318903  11.9561673  69.7804913  73.1108903
  12.7321673  69.3904913  73.1938903  11.4871673  69.4444913  73.7658903
  12.0011673  69.6734913  73.2198903  12.9811673  61.8134913  58.5928903
  13.0841673  61.7554913  57.7288903  13.7221673  61.4814913  58.9108903
  13.1061673  61.7564913  58.5118903   6.9011673  68.7784913  59.6998903
   6.6961673  69.6114913  59.5408903   6.1261673  68.3964913  59.8218903
   6.7561673  68.8454913  59.6948903  12.0831673  61.9594913  67.9488903
  12.0811673  61.0964913  68.0728903  12.1501673  62.2834913  68.7558903
  12.0931673  61.8794913  68.0858903   7.9621673  56.7594913  71.7308903
   8.0541673  57.4714913  72.2248903   7.3251673  56.3144913  72.1278903
   7.8811673  56.7984913  71.8628903   6.9561673  56.9494913  62.5848903
   6.2561673  57.4674913  62.5288903   6.9941673  56.5694913  61.8008903
   6.8581673  56.9704913  62.4608903   2.2631673  69.0404913  56.1088903
   2.7041673  69.1204913  56.8568903   1.4581673  68.8244913  56.3668903
   2.2091673  69.0204913  56.2578903  10.5541673  57.4654913  65.3848903
  11.4091673  57.5644913  65.5298903  10.1851673  58.0184913  65.9498903
  10.6261673  57.5624913  65.4898903  10.8581673  62.7454913  63.8758903
  11.5241673  63.2864913  64.0358903  10.5131673  63.0564913  63.1368903
  10.9051673  62.8714913  63.7908903   2.4111673  66.3554913  55.4528903
   1.5931673  66.0874913  55.5928903   2.3831673  67.2074913  55.6378903
   2.2861673  66.4424913  55.5008903  14.0291673  55.3034913  68.5408903
  13.9771673  55.2594913  69.4108903  14.7161673  54.8004913  68.3508903
  14.1231673  55.2234913  68.6408903   6.1141673  57.4164913  65.5858903
   5.3771673  56.9624913  65.6988903   6.6851673  57.0144913  66.1088903
   6.0891673  57.2894913  65.6798903   8.8461673  68.2644913  67.3738903
   9.0521673  68.5654913  68.1658903   8.7851673  68.9864913  66.8888903
   8.8671673  68.4154913  67.4188903   3.6171673  61.7454913  70.7898903
   3.2951673  61.1694913  70.2198903   3.2581673  62.5004913  70.5438903
   3.5171673  61.7714913  70.6698903   4.4131673  54.9974913  55.4168903
   4.4911673  55.2444913  54.5838903   3.6701673  55.3744913  55.6748903
   4.3151673  55.0894913  55.3318903  13.6581673  66.9034913  66.8318903
  13.6261673  66.0414913  66.6968903  12.9651673  67.2054913  66.3978903
  13.5511673  66.8204913  66.7478903  11.7631673  70.1634913  65.6288903
  12.2901673  70.0804913  64.9378903  11.3721673  69.3854913  65.6828903
  11.7831673  70.0364913  65.5348903   8.2771673  55.6074913  64.8368903
   8.9471673  56.1514913  64.9638903   7.7741673  56.0314913  64.2638903
   8.3021673  55.7504913  64.7708903   7.6361673  61.4154913  62.3298903
   8.1871673  60.8084913  62.6298903   7.2111673  61.6784913  63.0448903
   7.6551673  61.3644913  62.4788903   9.6061673  63.2464913  58.8918903
   9.6741673  62.3964913  59.0728903   8.7831673  63.3324913  58.6138903
   9.4941673  63.1334913  58.8778903   3.5251673  64.1374913  57.8298903
   3.6251673  64.2764913  56.9748903   4.3431673  64.0774913  58.1258903
   3.6601673  64.1484913  57.7468903  12.8801673  64.6194913  72.0428903
  13.5141673  64.4494913  72.6168903  13.2971673  65.0224913  71.3908903
  13.0351673  64.6544913  72.0318903   8.7601673  68.4664913  57.6318903
   8.5091673  68.3384913  58.4578903   8.4431673  67.7714913  57.2108903
   8.6761673  68.3454913  57.6918903  13.5051673  59.1834913  72.7808903
  13.3091673  59.8274913  73.3358903  12.7831673  58.6934913  72.7728903
  13.3701673  59.2064913  72.8618903  13.4041673  60.1244913  65.7518903
  12.5711673  60.3744913  65.6798903  13.3481673  59.2844913  65.9808903
  13.2731673  60.0374913  65.7748903   2.6641673  57.1124913  70.9458903
   2.8981673  56.5364913  70.3328903   1.8221673  56.9314913  71.0868903
   2.5741673  57.0004913  70.8758903  10.2911673  64.7304913  73.3978903
  11.1621673  64.6944913  73.3618903  10.0721673  65.1504913  72.6658903
  10.3881673  64.7864913  73.2848903   5.6461673  66.6744913  57.0618903
   6.3631673  66.3274913  56.7058903   5.6121673  67.4744913  56.7138903
   5.7471673  66.7414913  56.9578903   7.0551673  55.3154913  41.3006493
   6.8101673  55.8034913  40.6206493   7.9181673  55.2424913  41.2006493
   7.1461673  55.3764913  41.1856493   6.8641673  62.2314913  45.9716493
   6.3401673  62.8274913  46.3346493   7.2611673  61.8634913  46.6556493
   6.8451673  62.2654913  46.1266493  13.0081673  69.6724913  38.9426493
  13.7091673  69.1534913  38.9386493  12.4211673  69.2274913  38.4736493
  13.0251673  69.5294913  38.8726493   9.5351673  63.2984913  42.6476493
   9.6151673  63.3024913  41.7786493   8.9511673  62.6664913  42.7966493
   9.4601673  63.2054913  42.5416493   3.5241673  56.4024913  40.4556493
   3.4541673  57.0794913  39.9096493   4.2651673  56.0144913  40.2066493
   3.6231673  56.4454913  40.3376493   3.2471673  66.6314913  52.7496493
   3.0111673  66.6284913  53.5896493   2.4991673  66.4834913  52.3256493
   3.1011673  66.6084913  52.8106493   2.6271673  59.2374913  47.2316493
   3.3051673  59.2554913  46.6826493   2.5821673  58.4014913  47.4766493
   2.7201673  59.1164913  47.1866493   4.3241673  67.7084913  44.5176493
   4.6721673  66.9094913  44.5476493   4.9891673  68.2124913  44.2626493
   4.4741673  67.6644913  44.4846493   4.3811673  67.1574913  40.7286493
   4.7121673  66.5134913  41.2146493   4.6211673  66.9464913  39.9176493
   4.4651673  67.0314913  40.6806493   6.3491673  61.2884913  52.0676493
   5.5011673  61.1894913  51.8896493   6.3781673  62.0334913  52.5216493
   6.2281673  61.3844913  52.1086493  10.9071673  54.2484913  51.1816493
  10.7491673  55.0174913  50.7996493  10.1351673  54.0284913  51.5256493
  10.7691673  54.3294913  51.1766493   3.6961673  55.9634913  43.3966493
   3.7691673  56.8234913  43.5256493   3.6581673  55.8884913  42.5286493
   3.7011673  56.0794913  43.2876493   8.3691673  58.8894913  35.6956493
   7.9191673  59.5704913  36.0026493   8.4831673  58.3854913  36.3986493
   8.3201673  58.9154913  35.8446493   2.3251673  68.9424913  40.2776493
   1.7461673  68.6674913  40.8696493   2.9491673  68.3334913  40.3026493
   2.3321673  68.8124913  40.3686493   2.9101673  58.3384913  54.6866493
   3.0271673  57.8844913  53.9506493   3.1981673  59.1364913  54.4836493
   2.9701673  58.3894913  54.5476493  13.7631673  58.8624913  41.9906493
  13.4171673  59.5404913  42.4166493  13.1271673  58.2644913  42.0066493
  13.6181673  58.8744913  42.0556493   5.2921673  55.5784913  52.8386493
   5.4701673  54.7694913  52.5636493   5.1491673  56.0194913  52.0996493
   5.2971673  55.5244913  52.6886493   5.8861673  60.5044913  41.6116493
   6.1731673  60.2724913  40.8216493   6.6181673  60.5834913  42.0806493
   6.0361673  60.4814913  41.5646493   6.6081673  60.8434913  36.7326493
   6.8891673  61.6314913  36.9816493   5.8321673  61.0084913  36.3696493
   6.5351673  60.9844913  36.7156493  13.4381673  57.1854913  47.3596493
  14.1951673  57.2574913  46.9316493  13.5011673  56.4124913  47.7586493
  13.5591673  57.0824913  47.3546493   8.3291673  68.8174913  51.7986493
   8.2951673  69.1994913  52.5826493   9.1831673  68.7754913  51.6276493
   8.4501673  68.8674913  51.8896493   5.4671673  69.0144913  36.5486493
   5.2861673  69.5594913  37.2056493   6.2331673  69.3044913  36.2476493
   5.5531673  69.1384913  36.6016493   8.9741673  56.9104913  37.6026493
   9.5141673  56.2284913  37.6786493   9.0361673  57.3084913  38.3766493
   9.0631673  56.8684913  37.7286493   6.2321673  59.2864913  38.9166493
   5.7241673  58.6244913  38.6626493   6.2841673  59.7904913  38.2066493
   6.1651673  59.2634913  38.7746493   6.2321673  56.2274913  38.8076493
   5.7771673  55.8254913  38.1816493   7.0051673  56.3824913  38.4326493
   6.2791673  56.1914913  38.6596493   4.8301673  58.5944913  43.3296493
   4.9041673  59.1624913  42.6716493   4.9511673  59.0864913  44.0396493
   4.8581673  58.7514913  43.3376493  10.0551673  68.4294913  41.7416493
  10.7561673  67.9474913  41.9306493   9.3951673  67.8604913  41.7866493
  10.0611673  68.2744913  41.7756493   2.3941673  64.8504913  45.7026493
   2.5661673  64.6404913  46.5316493   1.7391673  64.3164913  45.4866493
   2.3231673  64.7404913  45.7936493   8.6221673  58.7644913  49.2176493
   8.5271673  59.0834913  50.0236493   8.0291673  58.1254913  49.1796493
   8.5201673  58.7164913  49.3316493   3.1441673  64.7884913  48.2926493
   3.1971673  65.6354913  48.4946493   2.8591673  64.4184913  49.0296493
   3.1101673  64.8584913  48.4306493   9.3211673  65.4834913  47.4226493
   8.8071673  65.0714913  47.9936493   9.1951673  66.3274913  47.6036493
   9.2271673  65.5474913  47.5336493   9.8781673  54.7084913  42.0536493
   9.9271673  54.3904913  42.8646493  10.2011673  54.0644913  41.5606493
   9.9331673  54.5664913  42.1006493  12.3421673  58.9444913  50.3616493
  13.1141673  58.7194913  50.6986493  11.8671673  59.1614913  51.0616493
  12.3861673  58.9434913  50.5146493  12.5741673  65.9224913  37.5496493
  12.6931673  65.6354913  38.3646493  13.3811673  65.9434913  37.2196493
  12.7101673  65.8834913  37.6216493  10.4691673  62.4594913  37.1346493
  10.2491673  63.1904913  36.7126493  10.0211673  62.5104913  37.8816493
  10.3701673  62.5744913  37.1826493   2.0781673  65.6614913  41.1156493
   2.7911673  66.1564913  41.2056493   2.3001673  65.0944913  40.4896493
   2.2161673  65.6504913  41.0366493  14.6561673  57.3204913  36.5876493
  13.9941673  56.7524913  36.6106493  14.4631673  57.8324913  35.9076493
  14.5301673  57.3124913  36.4906493   3.8811673  61.0144913  54.5316493
   3.3971673  61.5914913  54.9736493   3.8531673  61.3094913  53.7106493
   3.8051673  61.1434913  54.4756493  14.9791673  61.6984913  49.1436493
  15.1941673  60.8984913  48.8676493  14.1291673  61.7584913  48.9546493
  14.8851673  61.5894913  49.0746493  12.6581673  56.8784913  38.8666493
  13.4041673  56.4714913  39.0656493  12.9211673  57.5934913  38.4416493
  12.8071673  56.9244913  38.8336493   6.6011673  69.3644913  43.4426493
   6.0781673  69.9984913  43.1496493   6.9111673  69.0004913  42.7136493
   6.5691673  69.4044913  43.2916493   9.1121673  59.1664913  43.9396493
   9.4561673  59.3184913  44.7266493   8.6591673  58.4284913  44.0526493
   9.0961673  59.0794913  44.0726493   3.5881673  58.3864913  38.3966493
   3.5861673  58.2694913  37.5316493   3.4071673  59.2344913  38.4886493
   3.5611673  58.4944913  38.2826493  10.4331673  60.4984913  46.4936493
   9.7711673  60.8264913  46.9566493  10.6201673  61.1324913  45.9246493
  10.3631673  60.6404913  46.4776493   7.0781673  56.4044913  49.9226493
   7.2271673  55.5794913  49.6796493   7.4571673  56.4594913  50.7066493
   7.1561673  56.2904913  50.0026493   8.6261673  58.4674913  40.0046493
   9.1161673  59.1844913  39.9276493   7.8361673  58.7284913  39.7416493
   8.5821673  58.6114913  39.9546493   9.9401673  66.3454913  51.9146493
  10.4241673  67.0634913  52.0126493  10.3341673  65.9184913  51.2636493
  10.0701673  66.3884913  51.8326493   4.2361673  69.1904913  53.0916493
   4.5901673  69.0124913  53.8686493   3.8001673  68.4614913  52.8926493
   4.2241673  69.0564913  53.1776493   5.2081673  59.9374913  45.7296493
   5.6881673  60.6364913  45.9376493   5.5811673  59.2904913  46.1806493
   5.3341673  59.9454913  45.8266493   7.3971673  63.1064913  38.0036493
   7.3891673  63.8284913  37.5136493   6.7581673  63.2414913  38.5806493
   7.3021673  63.2334913  38.0166493  12.3691673  66.9764913  41.9846493
  12.7251673  66.6264913  42.6996493  12.3611673  66.3154913  41.4146493
  12.4211673  66.8264913  42.0056493   8.4141673  70.0424913  45.8286493
   7.8111673  69.7464913  45.2716493   8.9591673  70.4944913  45.3196493
   8.4051673  70.0654913  45.6706493   8.4271673  66.8934913  45.2286493
   7.6301673  67.1174913  45.5026493   8.6851673  66.2994913  45.8136493
   8.3471673  66.8384913  45.3556493  11.6871673  64.8914913  50.0746493
  11.7421673  65.0164913  49.2126493  12.4401673  65.2114913  50.3766493
  11.8061673  64.9564913  49.9916493  12.7191673  55.1894913  53.0616493
  12.0821673  54.7894913  52.6196493  12.7451673  54.7584913  53.8196493
  12.6291673  55.0674913  53.1076493   7.4181673  64.6974913  49.6746493
   7.2631673  65.3074913  50.2786493   7.9521673  64.1394913  50.0806493
   7.4741673  64.7054913  49.8236493   5.8021673  63.0974913  40.3326493
   5.8611673  63.7474913  40.9116493   5.6131673  62.4014913  40.8236493
   5.7831673  63.0904913  40.4906493  11.0281673  67.4264913  46.2016493
  10.5491673  67.7244913  45.5356493  10.6721673  66.6504913  46.3796493
  10.9051673  67.3554913  46.1296493   5.0251673  65.1444913  44.7636493
   4.1781673  64.9504913  44.8446493   5.3491673  64.9794913  45.5566493
   4.9471673  65.0914913  44.8926493   2.1031673  60.0084913  43.8146493
   2.9491673  59.8184913  43.9126493   1.7331673  59.2314913  43.6766493
   2.1731673  59.8654913  43.8086493  11.9591673  64.3684913  47.3206493
  11.9521673  63.5924913  47.7186493  11.1181673  64.6024913  47.3136493
  11.8341673  64.2884913  47.3786493  13.2151673  64.4394913  44.7576493
  12.9291673  64.8404913  45.4776493  14.0751673  64.3774913  44.8846493
  13.3001673  64.4894913  44.8826493   2.9041673  61.2414913  38.6656493
   3.1761673  62.0674913  38.7326493   2.0411673  61.3164913  38.5696493
   2.8171673  61.3744913  38.6606493  10.8771673  58.3634913  53.2976493
  10.3521673  58.8224913  53.8216493  10.5161673  57.5684913  53.2916493
  10.7461673  58.3134913  53.3736493  14.3461673  70.0724913  45.2866493
  14.6361673  70.3294913  44.5056493  15.0411673  70.1684913  45.8056493
  14.4921673  70.1244913  45.2476493   9.3691673  61.9324913  53.3736493
   9.4421673  62.0364913  54.2366493   8.7351673  62.4904913  53.1526493
   9.2861673  62.0304913  53.4686493  11.6371673  62.2514913  51.7386493
  11.9561673  63.0374913  51.9416493  11.2671673  61.9814913  52.4816493
  11.6301673  62.3274913  51.8786493  10.9511673  68.6754913  37.2686493
  11.2851673  67.8694913  37.3036493  10.1961673  68.6034913  37.6986493
  10.8891673  68.5454913  37.3376493  11.4331673  60.5094913  42.9276493
  10.6881673  60.1864913  43.2456493  11.4351673  61.3354913  43.2076493
  11.3231673  60.5834913  43.0156493  14.3351673  62.7934913  54.4736493
  14.2831673  62.4524913  53.6726493  15.0721673  63.2604913  54.4516493
  14.4361673  62.8124913  54.3516493  13.8731673  66.4694913  50.6796493
  14.5011673  65.9204913  50.4236493  13.8121673  67.0344913  50.0176493
  13.9571673  66.4724913  50.5436493   8.3251673  66.5504913  36.6716493
   9.0091673  66.0364913  36.5026493   7.9081673  66.5964913  35.9066493
   8.3641673  66.4814913  36.5336493   3.0071673  67.7004913  47.9756493
   2.7091673  68.2924913  48.5426493   3.0621673  68.1424913  47.2266493
   2.9711673  67.8534913  47.9486493  10.3451673  56.8394913  50.3886493
  11.0891673  57.2914913  50.3256493   9.7791673  57.3094913  49.9196493
  10.3721673  56.9764913  50.3106493   5.5231673  64.1234913  47.4666493
   5.9991673  64.4974913  48.0946493   4.7001673  64.2574913  47.7256493
   5.4721673  64.1984913  47.5976493   2.2331673  59.7264913  50.2076493
   2.3941673  58.9824913  50.6346493   2.1881673  59.4774913  49.3726493
   2.2501673  59.5794913  50.1476493  11.6301673  54.8194913  48.0586493
  11.3501673  55.6444913  48.0146493  12.3461673  54.8724913  48.5546493
  11.6951673  54.9494913  48.1256493   3.9851673  55.5344913  50.0876493
   4.6901673  55.8544913  49.6856493   4.2261673  54.7274913  50.3146493
   4.1241673  55.4624913  50.0616493   2.9701673  69.7444913  46.0836493
   2.3461673  70.3264913  45.9016493   3.2181673  69.4584913  45.2976493
   2.9141673  69.7884913  45.9406493   7.2791673  66.3784913  53.0726493
   8.0361673  66.6644913  52.7466493   6.7321673  66.4304913  52.3946493
   7.3101673  66.4284913  52.9236493  11.1881673  68.9284913  51.5766493
  11.5341673  69.1984913  52.3306493  11.4821673  69.5104913  50.9966493
  11.2831673  69.0544913  51.6026493  13.0511673  61.0744913  36.9156493
  13.4291673  61.7514913  36.5156493  12.2091673  61.2984913  36.9466493
  12.9821673  61.2074913  36.8606493   4.5641673  64.5204913  35.9986493
   3.7591673  64.3434913  35.7136493   4.5311673  65.3714913  36.1906493
   4.4401673  64.6194913  35.9856493   8.5101673  59.6894913  51.7406493
   7.8621673  60.1594913  52.0886493   9.0751673  59.6004913  52.3996493
   8.4981673  59.7454913  51.8896493   8.1981673  61.2264913  48.0386493
   8.5001673  61.6464913  48.7416493   8.2341673  60.3864913  48.2706493
   8.2481673  61.1644913  48.1766493  10.7461673  60.6734913  40.2906493
  10.9531673  60.4724913  41.1146493  11.5021673  60.9414913  39.9486493
  10.8881673  60.6834913  40.3616493   4.0411673  55.5724913  46.1956493
   3.2151673  55.4234913  46.4326493   4.0011673  55.6074913  45.3246493
   3.9131673  55.5554913  46.1016493  11.7681673  56.7564913  41.7646493
  11.0541673  56.2854913  41.9356493  11.6061673  57.0974913  40.9786493
  11.6391673  56.7374913  41.6736493  12.2111673  64.7004913  40.1446493
  12.6871673  63.9714913  40.0966493  11.3901673  64.4144913  40.0686493
  12.1601673  64.5504913  40.1256493   5.6821673  66.6124913  50.9836493
   4.8871673  66.5484913  51.3346493   5.7531673  67.4594913  50.7886493
   5.5751673  66.7274913  51.0066493   8.4271673  65.8674913  42.4996493
   8.5031673  66.2084913  43.2986493   8.5961673  65.0204913  42.6206493
   8.4631673  65.7924913  42.6356493   5.9491673  65.1414913  42.0646493
   5.6511673  64.8264913  42.8216493   6.6441673  65.6144913  42.2996493
   6.0081673  65.1644913  42.2116493   6.1711673  69.2594913  50.0916493
   6.8581673  69.1454913  50.6166493   6.3051673  70.0504913  49.7476493
   6.2921673  69.3594913  50.1186493  14.3471673  61.8684913  51.9026493
  13.4921673  61.7464913  52.0286493  14.5001673  61.4734913  51.1396493
  14.2431673  61.7914913  51.8086493   8.8601673  62.5334913  50.4786493
   8.6051673  61.8144913  50.9006493   9.6811673  62.6494913  50.7486493
   8.9441673  62.4444913  50.5806493   6.7941673  63.7234913  53.6656493
   7.1171673  64.4094913  53.2336493   6.0901673  64.0464913  54.0676493
   6.7371673  63.8724913  53.6606493   6.5791673  67.1874913  47.5246493
   5.8851673  67.5894913  47.8676493   7.2561673  67.6204913  47.8636493
   6.5761673  67.3104913  47.6256493  11.9561673  69.7804913  54.1046493
  12.7321673  69.3904913  54.1876493  11.4871673  69.4444913  54.7596493
  12.0011673  69.6734913  54.2136493  12.9811673  61.8134913  39.5866493
  13.0841673  61.7554913  38.7226493  13.7221673  61.4814913  39.9046493
  13.1061673  61.7564913  39.5056493   6.9011673  68.7784913  40.6936493
   6.6961673  69.6114913  40.5346493   6.1261673  68.3964913  40.8156493
   6.7561673  68.8454913  40.6886493  12.0831673  61.9594913  48.9426493
  12.0811673  61.0964913  49.0666493  12.1501673  62.2834913  49.7496493
  12.0931673  61.8794913  49.0796493   7.9621673  56.7594913  52.7246493
   8.0541673  57.4714913  53.2186493   7.3251673  56.3144913  53.1216493
   7.8811673  56.7984913  52.8566493   6.9561673  56.9494913  43.5786493
   6.2561673  57.4674913  43.5226493   6.9941673  56.5694913  42.7946493
   6.8581673  56.9704913  43.4546493   2.2631673  69.0404913  37.1026493
   2.7041673  69.1204913  37.8506493   1.4581673  68.8244913  37.3606493
   2.2091673  69.0204913  37.2516493  10.5541673  57.4654913  46.3786493
  11.4091673  57.5644913  46.5236493  10.1851673  58.0184913  46.9436493
  10.6261673  57.5624913  46.4836493  10.8581673  62.7454913  44.8696493
  11.5241673  63.2864913  45.0296493  10.5131673  63.0564913  44.1306493
  10.9051673  62.8714913  44.7846493   2.4111673  66.3554913  36.4466493
   1.5931673  66.0874913  36.5866493   2.3831673  67.2074913  36.6316493
   2.2861673  66.4424913  36.4946493  14.0291673  55.3034913  49.5346493
  13.9771673  55.2594913  50.4046493  14.7161673  54.8004913  49.3446493
  14.1231673  55.2234913  49.6346493   6.1141673  57.4164913  46.5796493
   5.3771673  56.9624913  46.6926493   6.6851673  57.0144913  47.1026493
   6.0891673  57.2894913  46.6736493   8.8461673  68.2644913  48.3676493
   9.0521673  68.5654913  49.1596493   8.7851673  68.9864913  47.8826493
   8.8671673  68.4154913  48.4126493   3.6171673  61.7454913  51.7836493
   3.2951673  61.1694913  51.2136493   3.2581673  62.5004913  51.5376493
   3.5171673  61.7714913  51.6636493   4.4131673  54.9974913  36.4106493
   4.4911673  55.2444913  35.5776493   3.6701673  55.3744913  36.6686493
   4.3151673  55.0894913  36.3256493  13.6581673  66.9034913  47.8256493
  13.6261673  66.0414913  47.6906493  12.9651673  67.2054913  47.3916493
  13.5511673  66.8204913  47.7416493  11.7631673  70.1634913  46.6226493
  12.2901673  70.0804913  45.9316493  11.3721673  69.3854913  46.6766493
  11.7831673  70.0364913  46.5286493   8.2771673  55.6074913  45.8306493
   8.9471673  56.1514913  45.9576493   7.7741673  56.0314913  45.2576493
   8.3021673  55.7504913  45.7646493   7.6361673  61.4154913  43.3236493
   8.1871673  60.8084913  43.6236493   7.2111673  61.6784913  44.0386493
   7.6551673  61.3644913  43.4726493   9.6061673  63.2464913  39.8856493
   9.6741673  62.3964913  40.0666493   8.7831673  63.3324913  39.6076493
   9.4941673  63.1334913  39.8716493   3.5251673  64.1374913  38.8236493
   3.6251673  64.2764913  37.9686493   4.3431673  64.0774913  39.1196493
   3.6601673  64.1484913  38.7406493  12.8801673  64.6194913  53.0366493
  13.5141673  64.4494913  53.6106493  13.2971673  65.0224913  52.3846493
  13.0351673  64.6544913  53.0256493   8.7601673  68.4664913  38.6256493
   8.5091673  68.3384913  39.4516493   8.4431673  67.7714913  38.2046493
   8.6761673  68.3454913  38.6856493  13.5051673  59.1834913  53.7746493
  13.3091673  59.8274913  54.3296493  12.7831673  58.6934913  53.7666493
  13.3701673  59.2064913  53.8556493  13.4041673  60.1244913  46.7456493
  12.5711673  60.3744913  46.6736493  13.3481673  59.2844913  46.9746493
  13.2731673  60.0374913  46.7686493   2.6641673  57.1124913  51.9396493
   2.8981673  56.5364913  51.3266493   1.8221673  56.9314913  52.0806493
   2.5741673  57.0004913  51.8696493  10.2911673  64.7304913  54.3916493
  11.1621673  64.6944913  54.3556493  10.0721673  65.1504913  53.6596493
  10.3881673  64.7864913  54.2786493   5.6461673  66.6744913  38.0556493
   6.3631673  66.3274913  37.6996493   5.6121673  67.4744913  37.7076493
   5.7471673  66.7414913  37.9516493   7.0551673  55.3154913  22.2944083
   6.8101673  55.8034913  21.6144083   7.9181673  55.2424913  22.1944083
   7.1461673  55.3764913  22.1794083   6.8641673  62.2314913  26.9654083
   6.3401673  62.8274913  27.3284083   7.2611673  61.8634913  27.6494083
   6.8451673  62.2654913  27.1204083  13.0081673  69.6724913  19.9364083
  13.7091673  69.1534913  19.9324083  12.4211673  69.2274913  19.4674083
  13.0251673  69.5294913  19.8664083   9.5351673  63.2984913  23.6414083
   9.6151673  63.3024913  22.7724083   8.9511673  62.6664913  23.7904083
   9.4601673  63.2054913  23.5354083   3.5241673  56.4024913  21.4494083
   3.4541673  57.0794913  20.9034083   4.2651673  56.0144913  21.2004083
   3.6231673  56.4454913  21.3314083   3.2471673  66.6314913  33.7434083
   3.0111673  66.6284913  34.5834083   2.4991673  66.4834913  33.3194083
   3.1011673  66.6084913  33.8044083   2.6271673  59.2374913  28.2254083
   3.3051673  59.2554913  27.6764083   2.5821673  58.4014913  28.4704083
   2.7201673  59.1164913  28.1804083   4.3241673  67.7084913  25.5114083
   4.6721673  66.9094913  25.5414083   4.9891673  68.2124913  25.2564083
   4.4741673  67.6644913  25.4784083   4.3811673  67.1574913  21.7224083
   4.7121673  66.5134913  22.2084083   4.6211673  66.9464913  20.9114083
   4.4651673  67.0314913  21.6744083   6.3491673  61.2884913  33.0614083
   5.5011673  61.1894913  32.8834083   6.3781673  62.0334913  33.5154083
   6.2281673  61.3844913  33.1024083  10.9071673  54.2484913  32.1754083
  10.7491673  55.0174913  31.7934083  10.1351673  54.0284913  32.5194083
  10.7691673  54.3294913  32.1704083   3.6961673  55.9634913  24.3904083
   3.7691673  56.8234913  24.5194083   3.6581673  55.8884913  23.5224083
   3.7011673  56.0794913  24.2814083   8.3691673  58.8894913  16.6894083
   7.9191673  59.5704913  16.9964083   8.4831673  58.3854913  17.3924083
   8.3201673  58.9154913  16.8384083   2.3251673  68.9424913  21.2714083
   1.7461673  68.6674913  21.8634083   2.9491673  68.3334913  21.2964083
   2.3321673  68.8124913  21.3624083   2.9101673  58.3384913  35.6804083
   3.0271673  57.8844913  34.9444083   3.1981673  59.1364913  35.4774083
   2.9701673  58.3894913  35.5414083  13.7631673  58.8624913  22.9844083
  13.4171673  59.5404913  23.4104083  13.1271673  58.2644913  23.0004083
  13.6181673  58.8744913  23.0494083   5.2921673  55.5784913  33.8324083
   5.4701673  54.7694913  33.5574083   5.1491673  56.0194913  33.0934083
   5.2971673  55.5244913  33.6824083   5.8861673  60.5044913  22.6054083
   6.1731673  60.2724913  21.8154083   6.6181673  60.5834913  23.0744083
   6.0361673  60.4814913  22.5584083   6.6081673  60.8434913  17.7264083
   6.8891673  61.6314913  17.9754083   5.8321673  61.0084913  17.3634083
   6.5351673  60.9844913  17.7094083  13.4381673  57.1854913  28.3534083
  14.1951673  57.2574913  27.9254083  13.5011673  56.4124913  28.7524083
  13.5591673  57.0824913  28.3484083   8.3291673  68.8174913  32.7924083
   8.2951673  69.1994913  33.5764083   9.1831673  68.7754913  32.6214083
   8.4501673  68.8674913  32.8834083   5.4671673  69.0144913  17.5424083
   5.2861673  69.5594913  18.1994083   6.2331673  69.3044913  17.2414083
   5.5531673  69.1384913  17.5954083   8.9741673  56.9104913  18.5964083
   9.5141673  56.2284913  18.6724083   9.0361673  57.3084913  19.3704083
   9.0631673  56.8684913  18.7224083   6.2321673  59.2864913  19.9104083
   5.7241673  58.6244913  19.6564083   6.2841673  59.7904913  19.2004083
   6.1651673  59.2634913  19.7684083   6.2321673  56.2274913  19.8014083
   5.7771673  55.8254913  19.1754083   7.0051673  56.3824913  19.4264083
   6.2791673  56.1914913  19.6534083   4.8301673  58.5944913  24.3234083
   4.9041673  59.1624913  23.6654083   4.9511673  59.0864913  25.0334083
   4.8581673  58.7514913  24.3314083  10.0551673  68.4294913  22.7354083
  10.7561673  67.9474913  22.9244083   9.3951673  67.8604913  22.7804083
  10.0611673  68.2744913  22.7694083   2.3941673  64.8504913  26.6964083
   2.5661673  64.6404913  27.5254083   1.7391673  64.3164913  26.4804083
   2.3231673  64.7404913  26.7874083   8.6221673  58.7644913  30.2114083
   8.5271673  59.0834913  31.0174083   8.0291673  58.1254913  30.1734083
   8.5201673  58.7164913  30.3254083   3.1441673  64.7884913  29.2864083
   3.1971673  65.6354913  29.4884083   2.8591673  64.4184913  30.0234083
   3.1101673  64.8584913  29.4244083   9.3211673  65.4834913  28.4164083
   8.8071673  65.0714913  28.9874083   9.1951673  66.3274913  28.5974083
   9.2271673  65.5474913  28.5274083   9.8781673  54.7084913  23.0474083
   9.9271673  54.3904913  23.8584083  10.2011673  54.0644913  22.5544083
   9.9331673  54.5664913  23.0944083  12.3421673  58.9444913  31.3554083
  13.1141673  58.7194913  31.6924083  11.8671673  59.1614913  32.0554083
  12.3861673  58.9434913  31.5084083  12.5741673  65.9224913  18.5434083
  12.6931673  65.6354913  19.3584083  13.3811673  65.9434913  18.2134083
  12.7101673  65.8834913  18.6154083  10.4691673  62.4594913  18.1284083
  10.2491673  63.1904913  17.7064083  10.0211673  62.5104913  18.8754083
  10.3701673  62.5744913  18.1764083   2.0781673  65.6614913  22.1094083
   2.7911673  66.1564913  22.1994083   2.3001673  65.0944913  21.4834083
   2.2161673  65.6504913  22.0304083  14.6561673  57.3204913  17.5814083
  13.9941673  56.7524913  17.6044083  14.4631673  57.8324913  16.9014083
  14.5301673  57.3124913  17.4844083   3.8811673  61.0144913  35.5254083
   3.3971673  61.5914913  35.9674083   3.8531673  61.3094913  34.7044083
   3.8051673  61.1434913  35.4694083  14.9791673  61.6984913  30.1374083
  15.1941673  60.8984913  29.8614083  14.1291673  61.7584913  29.9484083
  14.8851673  61.5894913  30.0684083  12.6581673  56.8784913  19.8604083
  13.4041673  56.4714913  20.0594083  12.9211673  57.5934913  19.4354083
  12.8071673  56.9244913  19.8274083   6.6011673  69.3644913  24.4364083
   6.0781673  69.9984913  24.1434083   6.9111673  69.0004913  23.7074083
   6.5691673  69.4044913  24.2854083   9.1121673  59.1664913  24.9334083
   9.4561673  59.3184913  25.7204083   8.6591673  58.4284913  25.0464083
   9.0961673  59.0794913  25.0664083   3.5881673  58.3864913  19.3904083
   3.5861673  58.2694913  18.5254083   3.4071673  59.2344913  19.4824083
   3.5611673  58.4944913  19.2764083  10.4331673  60.4984913  27.4874083
   9.7711673  60.8264913  27.9504083  10.6201673  61.1324913  26.9184083
  10.3631673  60.6404913  27.4714083   7.0781673  56.4044913  30.9164083
   7.2271673  55.5794913  30.6734083   7.4571673  56.4594913  31.7004083
   7.1561673  56.2904913  30.9964083   8.6261673  58.4674913  20.9984083
   9.1161673  59.1844913  20.9214083   7.8361673  58.7284913  20.7354083
   8.5821673  58.6114913  20.9484083   9.9401673  66.3454913  32.9084083
  10.4241673  67.0634913  33.0064083  10.3341673  65.9184913  32.2574083
  10.0701673  66.3884913  32.8264083   4.2361673  69.1904913  34.0854083
   4.5901673  69.0124913  34.8624083   3.8001673  68.4614913  33.8864083
   4.2241673  69.0564913  34.1714083   5.2081673  59.9374913  26.7234083
   5.6881673  60.6364913  26.9314083   5.5811673  59.2904913  27.1744083
   5.3341673  59.9454913  26.8204083   7.3971673  63.1064913  18.9974083
   7.3891673  63.8284913  18.5074083   6.7581673  63.2414913  19.5744083
   7.3021673  63.2334913  19.0104083  12.3691673  66.9764913  22.9784083
  12.7251673  66.6264913  23.6934083  12.3611673  66.3154913  22.4084083
  12.4211673  66.8264913  22.9994083   8.4141673  70.0424913  26.8224083
   7.8111673  69.7464913  26.2654083   8.9591673  70.4944913  26.3134083
   8.4051673  70.0654913  26.6644083   8.4271673  66.8934913  26.2224083
   7.6301673  67.1174913  26.4964083   8.6851673  66.2994913  26.8074083
   8.3471673  66.8384913  26.3494083  11.6871673  64.8914913  31.0684083
  11.7421673  65.0164913  30.2064083  12.4401673  65.2114913  31.3704083
  11.8061673  64.9564913  30.9854083  12.7191673  55.1894913  34.0554083
  12.0821673  54.7894913  33.6134083  12.7451673  54.7584913  34.8134083
  12.6291673  55.0674913  34.1014083   7.4181673  64.6974913  30.6684083
   7.2631673  65.3074913  31.2724083   7.9521673  64.1394913  31.0744083
   7.4741673  64.7054913  30.8174083   5.8021673  63.0974913  21.3264083
   5.8611673  63.7474913  21.9054083   5.6131673  62.4014913  21.8174083
   5.7831673  63.0904913  21.4844083  11.0281673  67.4264913  27.1954083
  10.5491673  67.7244913  26.5294083  10.6721673  66.6504913  27.3734083
  10.9051673  67.3554913  27.1234083   5.0251673  65.1444913  25.7574083
   4.1781673  64.9504913  25.8384083   5.3491673  64.9794913  26.5504083
   4.9471673  65.0914913  25.8864083   2.1031673  60.0084913  24.8084083
   2.9491673  59.8184913  24.9064083   1.7331673  59.2314913  24.6704083
   2.1731673  59.8654913  24.8024083  11.9591673  64.3684913  28.3144083
  11.9521673  63.5924913  28.7124083  11.1181673  64.6024913  28.3074083
  11.8341673  64.2884913  28.3724083  13.2151673  64.4394913  25.7514083
  12.9291673  64.8404913  26.4714083  14.0751673  64.3774913  25.8784083
  13.3001673  64.4894913  25.8764083   2.9041673  61.2414913  19.6594083
   3.1761673  62.0674913  19.7264083   2.0411673  61.3164913  19.5634083
   2.8171673  61.3744913  19.6544083  10.8771673  58.3634913  34.2914083
  10.3521673  58.8224913  34.8154083  10.5161673  57.5684913  34.2854083
  10.7461673  58.3134913  34.3674083  14.3461673  70.0724913  26.2804083
  14.6361673  70.3294913  25.4994083  15.0411673  70.1684913  26.7994083
  14.4921673  70.1244913  26.2414083   9.3691673  61.9324913  34.3674083
   9.4421673  62.0364913  35.2304083   8.7351673  62.4904913  34.1464083
   9.2861673  62.0304913  34.4624083  11.6371673  62.2514913  32.7324083
  11.9561673  63.0374913  32.9354083  11.2671673  61.9814913  33.4754083
  11.6301673  62.3274913  32.8724083  10.9511673  68.6754913  18.2624083
  11.2851673  67.8694913  18.2974083  10.1961673  68.6034913  18.6924083
  10.8891673  68.5454913  18.3314083  11.4331673  60.5094913  23.9214083
  10.6881673  60.1864913  24.2394083  11.4351673  61.3354913  24.2014083
  11.3231673  60.5834913  24.0094083  14.3351673  62.7934913  35.4674083
  14.2831673  62.4524913  34.6664083  15.0721673  63.2604913  35.4454083
  14.4361673  62.8124913  35.3454083  13.8731673  66.4694913  31.6734083
  14.5011673  65.9204913  31.4174083  13.8121673  67.0344913  31.0114083
  13.9571673  66.4724913  31.5374083   8.3251673  66.5504913  17.6654083
   9.0091673  66.0364913  17.4964083   7.9081673  66.5964913  16.9004083
   8.3641673  66.4814913  17.5274083   3.0071673  67.7004913  28.9694083
   2.7091673  68.2924913  29.5364083   3.0621673  68.1424913  28.2204083
   2.9711673  67.8534913  28.9424083  10.3451673  56.8394913  31.3824083
  11.0891673  57.2914913  31.3194083   9.7791673  57.3094913  30.9134083
  10.3721673  56.9764913  31.3044083   5.5231673  64.1234913  28.4604083
   5.9991673  64.4974913  29.0884083   4.7001673  64.2574913  28.7194083
   5.4721673  64.1984913  28.5914083   2.2331673  59.7264913  31.2014083
   2.3941673  58.9824913  31.6284083   2.1881673  59.4774913  30.3664083
   2.2501673  59.5794913  31.1414083  11.6301673  54.8194913  29.0524083
  11.3501673  55.6444913  29.0084083  12.3461673  54.8724913  29.5484083
  11.6951673  54.9494913  29.1194083   3.9851673  55.5344913  31.0814083
   4.6901673  55.8544913  30.6794083   4.2261673  54.7274913  31.3084083
   4.1241673  55.4624913  31.0554083   2.9701673  69.7444913  27.0774083
   2.3461673  70.3264913  26.8954083   3.2181673  69.4584913  26.2914083
   2.9141673  69.7884913  26.9344083   7.2791673  66.3784913  34.0664083
   8.0361673  66.6644913  33.7404083   6.7321673  66.4304913  33.3884083
   7.3101673  66.4284913  33.9174083  11.1881673  68.9284913  32.5704083
  11.5341673  69.1984913  33.3244083  11.4821673  69.5104913  31.9904083
  11.2831673  69.0544913  32.5964083  13.0511673  61.0744913  17.9094083
  13.4291673  61.7514913  17.5094083  12.2091673  61.2984913  17.9404083
  12.9821673  61.2074913  17.8544083   4.5641673  64.5204913  16.9924083
   3.7591673  64.3434913  16.7074083   4.5311673  65.3714913  17.1844083
   4.4401673  64.6194913  16.9794083   8.5101673  59.6894913  32.7344083
   7.8621673  60.1594913  33.0824083   9.0751673  59.6004913  33.3934083
   8.4981673  59.7454913  32.8834083   8.1981673  61.2264913  29.0324083
   8.5001673  61.6464913  29.7354083   8.2341673  60.3864913  29.2644083
   8.2481673  61.1644913  29.1704083  10.7461673  60.6734913  21.2844083
  10.9531673  60.4724913  22.1084083  11.5021673  60.9414913  20.9424083
  10.8881673  60.6834913  21.3554083   4.0411673  55.5724913  27.1894083
   3.2151673  55.4234913  27.4264083   4.0011673  55.6074913  26.3184083
   3.9131673  55.5554913  27.0954083  11.7681673  56.7564913  22.7584083
  11.0541673  56.2854913  22.9294083  11.6061673  57.0974913  21.9724083
  11.6391673  56.7374913  22.6674083  12.2111673  64.7004913  21.1384083
  12.6871673  63.9714913  21.0904083  11.3901673  64.4144913  21.0624083
  12.1601673  64.5504913  21.1194083   5.6821673  66.6124913  31.9774083
   4.8871673  66.5484913  32.3284083   5.7531673  67.4594913  31.7824083
   5.5751673  66.7274913  32.0004083   8.4271673  65.8674913  23.4934083
   8.5031673  66.2084913  24.2924083   8.5961673  65.0204913  23.6144083
   8.4631673  65.7924913  23.6294083   5.9491673  65.1414913  23.0584083
   5.6511673  64.8264913  23.8154083   6.6441673  65.6144913  23.2934083
   6.0081673  65.1644913  23.2054083   6.1711673  69.2594913  31.0854083
   6.8581673  69.1454913  31.6104083   6.3051673  70.0504913  30.7414083
   6.2921673  69.3594913  31.1124083  14.3471673  61.8684913  32.8964083
  13.4921673  61.7464913  33.0224083  14.5001673  61.4734913  32.1334083
  14.2431673  61.7914913  32.8024083   8.8601673  62.5334913  31.4724083
   8.6051673  61.8144913  31.8944083   9.6811673  62.6494913  31.7424083
   8.9441673  62.4444913  31.5744083   6.7941673  63.7234913  34.6594083
   7.1171673  64.4094913  34.2274083   6.0901673  64.0464913  35.0614083
   6.7371673  63.8724913  34.6544083   6.5791673  67.1874913  28.5184083
   5.8851673  67.5894913  28.8614083   7.2561673  67.6204913  28.8574083
   6.5761673  67.3104913  28.6194083  11.9561673  69.7804913  35.0984083
  12.7321673  69.3904913  35.1814083  11.4871673  69.4444913  35.7534083
  12.0011673  69.6734913  35.2074083  12.9811673  61.8134913  20.5804083
  13.0841673  61.7554913  19.7164083  13.7221673  61.4814913  20.8984083
  13.1061673  61.7564913  20.4994083   6.9011673  68.7784913  21.6874083
   6.6961673  69.6114913  21.5284083   6.1261673  68.3964913  21.8094083
   6.7561673  68.8454913  21.6824083  12.0831673  61.9594913  29.9364083
  12.0811673  61.0964913  30.0604083  12.1501673  62.2834913  30.7434083
  12.0931673  61.8794913  30.0734083   7.9621673  56.7594913  33.7184083
   8.0541673  57.4714913  34.2124083   7.3251673  56.3144913  34.1154083
   7.8811673  56.7984913  33.8504083   6.9561673  56.9494913  24.5724083
   6.2561673  57.4674913  24.5164083   6.9941673  56.5694913  23.7884083
   6.8581673  56.9704913  24.4484083   2.2631673  69.0404913  18.0964083
   2.7041673  69.1204913  18.8444083   1.4581673  68.8244913  18.3544083
   2.2091673  69.0204913  18.2454083  10.5541673  57.4654913  27.3724083
  11.4091673  57.5644913  27.5174083  10.1851673  58.0184913  27.9374083
  10.6261673  57.5624913  27.4774083  10.8581673  62.7454913  25.8634083
  11.5241673  63.2864913  26.0234083  10.5131673  63.0564913  25.1244083
  10.9051673  62.8714913  25.7784083   2.4111673  66.3554913  17.4404083
   1.5931673  66.0874913  17.5804083   2.3831673  67.2074913  17.6254083
   2.2861673  66.4424913  17.4884083  14.0291673  55.3034913  30.5284083
  13.9771673  55.2594913  31.3984083  14.7161673  54.8004913  30.3384083
  14.1231673  55.2234913  30.6284083   6.1141673  57.4164913  27.5734083
   5.3771673  56.9624913  27.6864083   6.6851673  57.0144913  28.0964083
   6.0891673  57.2894913  27.6674083   8.8461673  68.2644913  29.3614083
   9.0521673  68.5654913  30.1534083   8.7851673  68.9864913  28.8764083
   8.8671673  68.4154913  29.4064083   3.6171673  61.7454913  32.7774083
   3.2951673  61.1694913  32.2074083   3.2581673  62.5004913  32.5314083
   3.5171673  61.7714913  32.6574083   4.4131673  54.9974913  17.4044083
   4.4911673  55.2444913  16.5714083   3.6701673  55.3744913  17.6624083
   4.3151673  55.0894913  17.3194083  13.6581673  66.9034913  28.8194083
  13.6261673  66.0414913  28.6844083  12.9651673  67.2054913  28.3854083
  13.5511673  66.8204913  28.7354083  11.7631673  70.1634913  27.6164083
  12.2901673  70.0804913  26.9254083  11.3721673  69.3854913  27.6704083
  11.7831673  70.0364913  27.5224083   8.2771673  55.6074913  26.8244083
   8.9471673  56.1514913  26.9514083   7.7741673  56.0314913  26.2514083
   8.3021673  55.7504913  26.7584083   7.6361673  61.4154913  24.3174083
   8.1871673  60.8084913  24.6174083   7.2111673  61.6784913  25.0324083
   7.6551673  61.3644913  24.4664083   9.6061673  63.2464913  20.8794083
   9.6741673  62.3964913  21.0604083   8.7831673  63.3324913  20.6014083
   9.4941673  63.1334913  20.8654083   3.5251673  64.1374913  19.8174083
   3.6251673  64.2764913  18.9624083   4.3431673  64.0774913  20.1134083
   3.6601673  64.1484913  19.7344083  12.8801673  64.6194913  34.0304083
  13.5141673  64.4494913  34.6044083  13.2971673  65.0224913  33.3784083
  13.0351673  64.6544913  34.0194083   8.7601673  68.4664913  19.6194083
   8.5091673  68.3384913  20.4454083   8.4431673  67.7714913  19.1984083
   8.6761673  68.3454913  19.6794083  13.5051673  59.1834913  34.7684083
  13.3091673  59.8274913  35.3234083  12.7831673  58.6934913  34.7604083
  13.3701673  59.2064913  34.8494083  13.4041673  60.1244913  27.7394083
  12.5711673  60.3744913  27.6674083  13.3481673  59.2844913  27.9684083
  13.2731673  60.0374913  27.7624083   2.6641673  57.1124913  32.9334083
   2.8981673  56.5364913  32.3204083   1.8221673  56.9314913  33.0744083
   2.5741673  57.0004913  32.8634083  10.2911673  64.7304913  35.3854083
  11.1621673  64.6944913  35.3494083  10.0721673  65.1504913  34.6534083
  10.3881673  64.7864913  35.2724083   5.6461673  66.6744913  19.0494083
   6.3631673  66.3274913  18.6934083   5.6121673  67.4744913  18.7014083
   5.7471673  66.7414913  18.9454083   7.0551673  55.3154913   3.2881673
   6.8101673  55.8034913   2.6081673   7.9181673  55.2424913   3.1881673
   7.1461673  55.3764913   3.1731673   6.8641673  62.2314913   7.9591673
   6.3401673  62.8274913   8.3221673   7.2611673  61.8634913   8.6431673
   6.8451673  62.2654913   8.1141673   9.5351673  63.2984913   4.6351673
   9.6151673  63.3024913   3.7661673   8.9511673  62.6664913   4.7841673
   9.4601673  63.2054913   4.5291673   3.5241673  56.4024913   2.4431673
   3.4541673  57.0794913   1.8971673   4.2651673  56.0144913   2.1941673
   3.6231673  56.4454913   2.3251673   3.2471673  66.6314913  14.7371673
   3.0111673  66.6284913  15.5771673   2.4991673  66.4834913  14.3131673
   3.1011673  66.6084913  14.7981673   2.6271673  59.2374913   9.2191673
   3.3051673  59.2554913   8.6701673   2.5821673  58.4014913   9.4641673
   2.7201673  59.1164913   9.1741673   4.3241673  67.7084913   6.5051673
   4.6721673  66.9094913   6.5351673   4.9891673  68.2124913   6.2501673
   4.4741673  67.6644913   6.4721673   4.3811673  67.1574913   2.7161673
   4.7121673  66.5134913   3.2021673   4.6211673  66.9464913   1.9051673
   4.4651673  67.0314913   2.6681673   6.3491673  61.2884913  14.0551673
   5.5011673  61.1894913  13.8771673   6.3781673  62.0334913  14.5091673
   6.2281673  61.3844913  14.0961673  10.9071673  54.2484913  13.1691673
  10.7491673  55.0174913  12.7871673  10.1351673  54.0284913  13.5131673
  10.7691673  54.3294913  13.1641673   3.6961673  55.9634913   5.3841673
   3.7691673  56.8234913   5.5131673   3.6581673  55.8884913   4.5161673
   3.7011673  56.0794913   5.2751673   2.3251673  68.9424913   2.2651673
   1.7461673  68.6674913   2.8571673   2.9491673  68.3334913   2.2901673
   2.3321673  68.8124913   2.3561673   2.9101673  58.3384913  16.6741673
   3.0271673  57.8844913  15.9381673   3.1981673  59.1364913  16.4711673
   2.9701673  58.3894913  16.5351673  13.7631673  58.8624913   3.9781673
  13.4171673  59.5404913   4.4041673  13.1271673  58.2644913   3.9941673
  13.6181673  58.8744913   4.0431673   5.2921673  55.5784913  14.8261673
   5.4701673  54.7694913  14.5511673   5.1491673  56.0194913  14.0871673
   5.2971673  55.5244913  14.6761673   5.8861673  60.5044913   3.5991673
   6.1731673  60.2724913   2.8091673   6.6181673  60.5834913   4.0681673
   6.0361673  60.4814913   3.5521673  13.4381673  57.1854913   9.3471673
  14.1951673  57.2574913   8.9191673  13.5011673  56.4124913   9.7461673
  13.5591673  57.0824913   9.3421673   8.3291673  68.8174913  13.7861673
   8.2951673  69.1994913  14.5701673   9.1831673  68.7754913  13.6151673
   8.4501673  68.8674913  13.8771673   4.8301673  58.5944913   5.3171673
   4.9041673  59.1624913   4.6591673   4.9511673  59.0864913   6.0271673
   4.8581673  58.7514913   5.3251673  10.0551673  68.4294913   3.7291673
  10.7561673  67.9474913   3.9181673   9.3951673  67.8604913   3.7741673
  10.0611673  68.2744913   3.7631673   2.3941673  64.8504913   7.6901673
   2.5661673  64.6404913   8.5191673   1.7391673  64.3164913   7.4741673
   2.3231673  64.7404913   7.7811673   8.6221673  58.7644913  11.2051673
   8.5271673  59.0834913  12.0111673   8.0291673  58.1254913  11.1671673
   8.5201673  58.7164913  11.3191673   3.1441673  64.7884913  10.2801673
   3.1971673  65.6354913  10.4821673   2.8591673  64.4184913  11.0171673
   3.1101673  64.8584913  10.4181673   9.3211673  65.4834913   9.4101673
   8.8071673  65.0714913   9.9811673   9.1951673  66.3274913   9.5911673
   9.2271673  65.5474913   9.5211673   9.8781673  54.7084913   4.0411673
   9.9271673  54.3904913   4.8521673  10.2011673  54.0644913   3.5481673
   9.9331673  54.5664913   4.0881673  12.3421673  58.9444913  12.3491673
  13.1141673  58.7194913  12.6861673  11.8671673  59.1614913  13.0491673
  12.3861673  58.9434913  12.5021673   2.0781673  65.6614913   3.1031673
   2.7911673  66.1564913   3.1931673   2.3001673  65.0944913   2.4771673
   2.2161673  65.6504913   3.0241673   3.8811673  61.0144913  16.5191673
   3.3971673  61.5914913  16.9611673   3.8531673  61.3094913  15.6981673
   3.8051673  61.1434913  16.4631673  14.9791673  61.6984913  11.1311673
  15.1941673  60.8984913  10.8551673  14.1291673  61.7584913  10.9421673
  14.8851673  61.5894913  11.0621673   6.6011673  69.3644913   5.4301673
   6.0781673  69.9984913   5.1371673   6.9111673  69.0004913   4.7011673
   6.5691673  69.4044913   5.2791673   9.1121673  59.1664913   5.9271673
   9.4561673  59.3184913   6.7141673   8.6591673  58.4284913   6.0401673
   9.0961673  59.0794913   6.0601673  10.4331673  60.4984913   8.4811673
   9.7711673  60.8264913   8.9441673  10.6201673  61.1324913   7.9121673
  10.3631673  60.6404913   8.4651673   7.0781673  56.4044913  11.9101673
   7.2271673  55.5794913  11.6671673   7.4571673  56.4594913  12.6941673
   7.1561673  56.2904913  11.9901673   8.6261673  58.4674913   1.9921673
   9.1161673  59.1844913   1.9151673   7.8361673  58.7284913   1.7291673
   8.5821673  58.6114913   1.9421673   9.9401673  66.3454913  13.9021673
  10.4241673  67.0634913  14.0001673  10.3341673  65.9184913  13.2511673
  10.0701673  66.3884913  13.8201673   4.2361673  69.1904913  15.0791673
   4.5901673  69.0124913  15.8561673   3.8001673  68.4614913  14.8801673
   4.2241673  69.0564913  15.1651673   5.2081673  59.9374913   7.7171673
   5.6881673  60.6364913   7.9251673   5.5811673  59.2904913   8.1681673
   5.3341673  59.9454913   7.8141673  12.3691673  66.9764913   3.9721673
  12.7251673  66.6264913   4.6871673  12.3611673  66.3154913   3.4021673
  12.4211673  66.8264913   3.9931673   8.4141673  70.0424913   7.8161673
   7.8111673  69.7464913   7.2591673   8.9591673  70.4944913   7.3071673
   8.4051673  70.0654913   7.6581673   8.4271673  66.8934913   7.2161673
   7.6301673  67.1174913   7.4901673   8.6851673  66.2994913   7.8011673
   8.3471673  66.8384913   7.3431673  11.6871673  64.8914913  12.0621673
  11.7421673  65.0164913  11.2001673  12.4401673  65.2114913  12.3641673
  11.8061673  64.9564913  11.9791673  12.7191673  55.1894913  15.0491673
  12.0821673  54.7894913  14.6071673  12.7451673  54.7584913  15.8071673
  12.6291673  55.0674913  15.0951673   7.4181673  64.6974913  11.6621673
   7.2631673  65.3074913  12.2661673   7.9521673  64.1394913  12.0681673
   7.4741673  64.7054913  11.8111673   5.8021673  63.0974913   2.3201673
   5.8611673  63.7474913   2.8991673   5.6131673  62.4014913   2.8111673
   5.7831673  63.0904913   2.4781673  11.0281673  67.4264913   8.1891673
  10.5491673  67.7244913   7.5231673  10.6721673  66.6504913   8.3671673
  10.9051673  67.3554913   8.1171673   5.0251673  65.1444913   6.7511673
   4.1781673  64.9504913   6.8321673   5.3491673  64.9794913   7.5441673
   4.9471673  65.0914913   6.8801673   2.1031673  60.0084913   5.8021673
   2.9491673  59.8184913   5.9001673   1.7331673  59.2314913   5.6641673
   2.1731673  59.8654913   5.7961673  11.9591673  64.3684913   9.3081673
  11.9521673  63.5924913   9.7061673  11.1181673  64.6024913   9.3011673
  11.8341673  64.2884913   9.3661673  13.2151673  64.4394913   6.7451673
  12.9291673  64.8404913   7.4651673  14.0751673  64.3774913   6.8721673
  13.3001673  64.4894913   6.8701673  10.8771673  58.3634913  15.2851673
  10.3521673  58.8224913  15.8091673  10.5161673  57.5684913  15.2791673
  10.7461673  58.3134913  15.3611673  14.3461673  70.0724913   7.2741673
  14.6361673  70.3294913   6.4931673  15.0411673  70.1684913   7.7931673
  14.4921673  70.1244913   7.2351673   9.3691673  61.9324913  15.3611673
   9.4421673  62.0364913  16.2241673   8.7351673  62.4904913  15.1401673
   9.2861673  62.0304913  15.4561673  11.6371673  62.2514913  13.7261673
  11.9561673  63.0374913  13.9291673  11.2671673  61.9814913  14.4691673
  11.6301673  62.3274913  13.8661673  11.4331673  60.5094913   4.9151673
  10.6881673  60.1864913   5.2331673  11.4351673  61.3354913   5.1951673
  11.3231673  60.5834913   5.0031673  14.3351673  62.7934913  16.4611673
  14.2831673  62.4524913  15.6601673  15.0721673  63.2604913  16.4391673
  14.4361673  62.8124913  16.3391673  13.8731673  66.4694913  12.6671673
  14.5011673  65.9204913  12.4111673  13.8121673  67.0344913  12.0051673
  13.9571673  66.4724913  12.5311673   3.0071673  67.7004913   9.9631673
   2.7091673  68.2924913  10.5301673   3.0621673  68.1424913   9.2141673
   2.9711673  67.8534913   9.9361673  10.3451673  56.8394913  12.3761673
  11.0891673  57.2914913  12.3131673   9.7791673  57.3094913  11.9071673
  10.3721673  56.9764913  12.2981673   5.5231673  64.1234913   9.4541673
   5.9991673  64.4974913  10.0821673   4.7001673  64.2574913   9.7131673
   5.4721673  64.1984913   9.5851673   2.2331673  59.7264913  12.1951673
   2.3941673  58.9824913  12.6221673   2.1881673  59.4774913  11.3601673
   2.2501673  59.5794913  12.1351673  11.6301673  54.8194913  10.0461673
  11.3501673  55.6444913  10.0021673  12.3461673  54.8724913  10.5421673
  11.6951673  54.9494913  10.1131673   3.9851673  55.5344913  12.0751673
   4.6901673  55.8544913  11.6731673   4.2261673  54.7274913  12.3021673
   4.1241673  55.4624913  12.0491673   2.9701673  69.7444913   8.0711673
   2.3461673  70.3264913   7.8891673   3.2181673  69.4584913   7.2851673
   2.9141673  69.7884913   7.9281673   7.2791673  66.3784913  15.0601673
   8.0361673  66.6644913  14.7341673   6.7321673  66.4304913  14.3821673
   7.3101673  66.4284913  14.9111673  11.1881673  68.9284913  13.5641673
  11.5341673  69.1984913  14.3181673  11.4821673  69.5104913  12.9841673
  11.2831673  69.0544913  13.5901673   8.5101673  59.6894913  13.7281673
   7.8621673  60.1594913  14.0761673   9.0751673  59.6004913  14.3871673
   8.4981673  59.7454913  13.8771673   8.1981673  61.2264913  10.0261673
   8.5001673  61.6464913  10.7291673   8.2341673  60.3864913  10.2581673
   8.2481673  61.1644913  10.1641673  10.7461673  60.6734913   2.2781673
  10.9531673  60.4724913   3.1021673  11.5021673  60.9414913   1.9361673
  10.8881673  60.6834913   2.3491673   4.0411673  55.5724913   8.1831673
   3.2151673  55.4234913   8.4201673   4.0011673  55.6074913   7.3121673
   3.9131673  55.5554913   8.0891673  11.7681673  56.7564913   3.7521673
  11.0541673  56.2854913   3.9231673  11.6061673  57.0974913   2.9661673
  11.6391673  56.7374913   3.6611673  12.2111673  64.7004913   2.1321673
  12.6871673  63.9714913   2.0841673  11.3901673  64.4144913   2.0561673
  12.1601673  64.5504913   2.1131673   5.6821673  66.6124913  12.9711673
   4.8871673  66.5484913  13.3221673   5.7531673  67.4594913  12.7761673
   5.5751673  66.7274913  12.9941673   8.4271673  65.8674913   4.4871673
   8.5031673  66.2084913   5.2861673   8.5961673  65.0204913   4.6081673
   8.4631673  65.7924913   4.6231673   5.9491673  65.1414913   4.0521673
   5.6511673  64.8264913   4.8091673   6.6441673  65.6144913   4.2871673
   6.0081673  65.1644913   4.1991673   6.1711673  69.2594913  12.0791673
   6.8581673  69.1454913  12.6041673   6.3051673  70.0504913  11.7351673
   6.2921673  69.3594913  12.1061673  14.3471673  61.8684913  13.8901673
  13.4921673  61.7464913  14.0161673  14.5001673  61.4734913  13.1271673
  14.2431673  61.7914913  13.7961673   8.8601673  62.5334913  12.4661673
   8.6051673  61.8144913  12.8881673   9.6811673  62.6494913  12.7361673
   8.9441673  62.4444913  12.5681673   6.7941673  63.7234913  15.6531673
   7.1171673  64.4094913  15.2211673   6.0901673  64.0464913  16.0551673
   6.7371673  63.8724913  15.6481673   6.5791673  67.1874913   9.5121673
   5.8851673  67.5894913   9.8551673   7.2561673  67.6204913   9.8511673
   6.5761673  67.3104913   9.6131673  11.9561673  69.7804913  16.0921673
  12.7321673  69.3904913  16.1751673  11.4871673  69.4444913  16.7471673
  12.0011673  69.6734913  16.2011673   6.9011673  68.7784913   2.6811673
   6.6961673  69.6114913   2.5221673   6.1261673  68.3964913   2.8031673
   6.7561673  68.8454913   2.6761673  12.0831673  61.9594913  10.9301673
  12.0811673  61.0964913  11.0541673  12.1501673  62.2834913  11.7371673
  12.0931673  61.8794913  11.0671673   7.9621673  56.7594913  14.7121673
   8.0541673  57.4714913  15.2061673   7.3251673  56.3144913  15.1091673
   7.8811673  56.7984913  14.8441673   6.9561673  56.9494913   5.5661673
   6.2561673  57.4674913   5.5101673   6.9941673  56.5694913   4.7821673
   6.8581673  56.9704913   5.4421673  10.5541673  57.4654913   8.3661673
  11.4091673  57.5644913   8.5111673  10.1851673  58.0184913   8.9311673
  10.6261673  57.5624913   8.4711673  10.8581673  62.7454913   6.8571673
  11.5241673  63.2864913   7.0171673  10.5131673  63.0564913   6.1181673
  10.9051673  62.8714913   6.7721673  14.0291673  55.3034913  11.5221673
  13.9771673  55.2594913  12.3921673  14.7161673  54.8004913  11.3321673
  14.1231673  55.2234913  11.6221673   6.1141673  57.4164913   8.5671673
   5.3771673  56.9624913   8.6801673   6.6851673  57.0144913   9.0901673
   6.0891673  57.2894913   8.6611673   8.8461673  68.2644913  10.3551673
   9.0521673  68.5654913  11.1471673   8.7851673  68.9864913   9.8701673
   8.8671673  68.4154913  10.4001673   3.6171673  61.7454913  13.7711673
   3.2951673  61.1694913  13.2011673   3.2581673  62.5004913  13.5251673
   3.5171673  61.7714913  13.6511673  13.6581673  66.9034913   9.8131673
  13.6261673  66.0414913   9.6781673  12.9651673  67.2054913   9.3791673
  13.5511673  66.8204913   9.7291673  11.7631673  70.1634913   8.6101673
  12.2901673  70.0804913   7.9191673  11.3721673  69.3854913   8.6641673
  11.7831673  70.0364913   8.5161673   8.2771673  55.6074913   7.8181673
   8.9471673  56.1514913   7.9451673   7.7741673  56.0314913   7.2451673
   8.3021673  55.7504913   7.7521673   7.6361673  61.4154913   5.3111673
   8.1871673  60.8084913   5.6111673   7.2111673  61.6784913   6.0261673
   7.6551673  61.3644913   5.4601673   9.6061673  63.2464913   1.8731673
   9.6741673  62.3964913   2.0541673   8.7831673  63.3324913   1.5951673
   9.4941673  63.1334913   1.8591673  12.8801673  64.6194913  15.0241673
  13.5141673  64.4494913  15.5981673  13.2971673  65.0224913  14.3721673
  13.0351673  64.6544913  15.0131673  13.5051673  59.1834913  15.7621673
  13.3091673  59.8274913  16.3171673  12.7831673  58.6934913  15.7541673
  13.3701673  59.2064913  15.8431673  13.4041673  60.1244913   8.7331673
  12.5711673  60.3744913   8.6611673  13.3481673  59.2844913   8.9621673
  13.2731673  60.0374913   8.7561673   2.6641673  57.1124913  13.9271673
   2.8981673  56.5364913  13.3141673   1.8221673  56.9314913  14.0681673
   2.5741673  57.0004913  13.8571673  10.2911673  64.7304913  16.3791673
  11.1621673  64.6944913  16.3431673  10.0721673  65.1504913  15.6471673
  10.3881673  64.7864913  16.2661673   7.0551673  36.8373833  79.3131313
   6.8101673  37.3253833  78.6331313   7.9181673  36.7643833  79.2131313
   7.1461673  36.8983833  79.1981313   6.8641673  43.7533833  83.9841313
   6.3401673  44.3493833  84.3471313   7.2611673  43.3853833  84.6681313
   6.8451673  43.7873833  84.1391313  13.0081673  51.1943833  76.9551313
  13.7091673  50.6753833  76.9511313  12.4211673  50.7493833  76.4861313
  13.0251673  51.0513833  76.8851313   9.5351673  44.8203833  80.6601313
   9.6151673  44.8243833  79.7911313   8.9511673  44.1883833  80.8091313
   9.4601673  44.7273833  80.5541313   3.5241673  37.9243833  78.4681313
   3.4541673  38.6013833  77.9221313   4.2651673  37.5363833  78.2191313
   3.6231673  37.9673833  78.3501313   2.6271673  40.7593833  85.2441313
   3.3051673  40.7773833  84.6951313   2.5821673  39.9233833  85.4891313
   2.7201673  40.6383833  85.1991313   3.2291673  51.3453833  88.0251313
   3.3671673  52.1053833  87.6181313   4.0201673  50.9803833  88.0521313
   3.3661673  51.4043833  87.9691313   4.3241673  49.2303833  82.5301313
   4.6721673  48.4313833  82.5601313   4.9891673  49.7343833  82.2751313
   4.4741673  49.1863833  82.4971313   4.3811673  48.6793833  78.7411313
   4.7121673  48.0353833  79.2271313   4.6211673  48.4683833  77.9301313
   4.4651673  48.5533833  78.6931313   3.6961673  37.4853833  81.4091313
   3.7691673  38.3453833  81.5381313   3.6581673  37.4103833  80.5411313
   3.7011673  37.6013833  81.3001313   8.3691673  40.4113833  73.7081313
   7.9191673  41.0923833  74.0151313   8.4831673  39.9073833  74.4111313
   8.3201673  40.4373833  73.8571313   2.3251673  50.4643833  78.2901313
   1.7461673  50.1893833  78.8821313   2.9491673  49.8553833  78.3151313
   2.3321673  50.3343833  78.3811313   8.4681673  52.7523833  75.8121313
   9.1951673  53.2243833  75.9141313   8.6971673  51.9583833  76.0921313
   8.6101673  52.7053833  75.8691313   6.6361673  53.1443833  77.8021313
   6.8501673  53.6713833  78.4641313   7.4031673  52.9703833  77.4231313
   6.7811673  53.1963833  77.8441313  13.7631673  40.3843833  80.0031313
  13.4171673  41.0623833  80.4291313  13.1271673  39.7863833  80.0191313
  13.6181673  40.3963833  80.0681313   9.0751673  53.1543833  86.1071313
   9.8191673  53.6103833  86.0971313   8.9541673  52.9403833  85.2701313
   9.1671673  53.1903833  85.9821313   2.0791673  52.6293833  81.5371313
   2.9231673  52.7333833  81.3421313   1.7821673  53.4473833  81.6051313
   2.1601673  52.7653833  81.5181313   5.8861673  42.0263833  79.6241313
   6.1731673  41.7943833  78.8341313   6.6181673  42.1053833  80.0931313
   6.0361673  42.0033833  79.5771313   6.6081673  42.3653833  74.7451313
   6.8891673  43.1533833  74.9941313   5.8321673  42.5303833  74.3821313
   6.5351673  42.5063833  74.7281313  10.6491673  54.3393833  76.2121313
  11.3141673  54.1913833  75.6671313  11.0091673  54.2563833  77.0021313
  10.8011673  54.3053833  76.2481313  13.4381673  38.7073833  85.3721313
  14.1951673  38.7793833  84.9441313  13.5011673  37.9343833  85.7711313
  13.5591673  38.6043833  85.3671313   5.4671673  50.5363833  74.5611313
   5.2861673  51.0813833  75.2181313   6.2331673  50.8263833  74.2601313
   5.5531673  50.6603833  74.6141313   8.9741673  38.4323833  75.6151313
   9.5141673  37.7503833  75.6911313   9.0361673  38.8303833  76.3891313
   9.0631673  38.3903833  75.7411313   6.2321673  40.8083833  76.9291313
   5.7241673  40.1463833  76.6751313   6.2841673  41.3123833  76.2191313
   6.1651673  40.7853833  76.7871313   6.7811673  53.5033833  87.3091313
   7.5491673  53.4233833  86.9031313   6.1981673  53.3823833  86.6711313
   6.8081673  53.4733833  87.1551313   6.2321673  37.7493833  76.8201313
   5.7771673  37.3473833  76.1941313   7.0051673  37.9043833  76.4451313
   6.2791673  37.7133833  76.6721313  13.0581673  54.1063833  80.2101313
  12.6031673  54.8233833  80.4111313  12.4441673  53.5353833  79.9681313
  12.9001673  54.1283833  80.2041313   4.8301673  40.1163833  81.3421313
   4.9041673  40.6843833  80.6841313   4.9511673  40.6083833  82.0521313
   4.8581673  40.2733833  81.3501313  10.0551673  49.9513833  79.7541313
  10.7561673  49.4693833  79.9431313   9.3951673  49.3823833  79.7991313
  10.0611673  49.7963833  79.7881313   2.3941673  46.3723833  83.7151313
   2.5661673  46.1623833  84.5441313   1.7391673  45.8383833  83.4991313
   2.3231673  46.2623833  83.8061313   8.6221673  40.2863833  87.2301313
   8.5271673  40.6053833  88.0361313   8.0291673  39.6473833  87.1921313
   8.5201673  40.2383833  87.3441313   3.1441673  46.3103833  86.3051313
   3.1971673  47.1573833  86.5071313   2.8591673  45.9403833  87.0421313
   3.1101673  46.3803833  86.4431313   9.3211673  47.0053833  85.4351313
   8.8071673  46.5933833  86.0061313   9.1951673  47.8493833  85.6161313
   9.2271673  47.0693833  85.5461313   9.8781673  36.2303833  80.0661313
   9.9271673  35.9123833  80.8771313  10.2011673  35.5863833  79.5731313
   9.9331673  36.0883833  80.1131313  12.5741673  47.4443833  75.5621313
  12.6931673  47.1573833  76.3771313  13.3811673  47.4653833  75.2321313
  12.7101673  47.4053833  75.6341313  10.4691673  43.9813833  75.1471313
  10.2491673  44.7123833  74.7251313  10.0211673  44.0323833  75.8941313
  10.3701673  44.0963833  75.1951313   2.0781673  47.1833833  79.1281313
   2.7911673  47.6783833  79.2181313   2.3001673  46.6163833  78.5021313
   2.2161673  47.1723833  79.0491313  14.6561673  38.8423833  74.6001313
  13.9941673  38.2743833  74.6231313  14.4631673  39.3543833  73.9201313
  14.5301673  38.8343833  74.5031313  14.9791673  43.2203833  87.1561313
  15.1941673  42.4203833  86.8801313  14.1291673  43.2803833  86.9671313
  14.8851673  43.1113833  87.0871313  12.6581673  38.4003833  76.8791313
  13.4041673  37.9933833  77.0781313  12.9211673  39.1153833  76.4541313
  12.8071673  38.4463833  76.8461313   6.6011673  50.8863833  81.4551313
   6.0781673  51.5203833  81.1621313   6.9111673  50.5223833  80.7261313
   6.5691673  50.9263833  81.3041313   9.1121673  40.6883833  81.9521313
   9.4561673  40.8403833  82.7391313   8.6591673  39.9503833  82.0651313
   9.0961673  40.6013833  82.0851313   3.5881673  39.9083833  76.4091313
   3.5861673  39.7913833  75.5441313   3.4071673  40.7563833  76.5011313
   3.5611673  40.0163833  76.2951313  12.6421673  52.3353833  87.9061313
  11.9711673  52.8493833  88.1241313  12.7051673  52.4353833  87.0421313
  12.5521673  52.4263833  87.8111313  10.4331673  42.0203833  84.5061313
   9.7711673  42.3483833  84.9691313  10.6201673  42.6543833  83.9371313
  10.3631673  42.1623833  84.4901313   4.6381673  53.0843833  85.5021313
   4.3611673  52.4433833  84.9791313   4.4301673  53.8103833  85.0641313
   4.5671673  53.0973833  85.3601313   7.0781673  37.9263833  87.9351313
   7.2271673  37.1013833  87.6921313   7.4571673  37.9813833  88.7191313
   7.1561673  37.8123833  88.0151313   8.6261673  39.9893833  78.0171313
   9.1161673  40.7063833  77.9401313   7.8361673  40.2503833  77.7541313
   8.5821673  40.1333833  77.9671313   5.2081673  41.4593833  83.7421313
   5.6881673  42.1583833  83.9501313   5.5811673  40.8123833  84.1931313
   5.3341673  41.4673833  83.8391313   7.3971673  44.6283833  76.0161313
   7.3891673  45.3503833  75.5261313   6.7581673  44.7633833  76.5931313
   7.3021673  44.7553833  76.0291313  12.3691673  48.4983833  79.9971313
  12.7251673  48.1483833  80.7121313  12.3611673  47.8373833  79.4271313
  12.4211673  48.3483833  80.0181313   8.4141673  51.5643833  83.8411313
   7.8111673  51.2683833  83.2841313   8.9591673  52.0163833  83.3321313
   8.4051673  51.5873833  83.6831313   8.4271673  48.4153833  83.2411313
   7.6301673  48.6393833  83.5151313   8.6851673  47.8213833  83.8261313
   8.3471673  48.3603833  83.3681313   2.3191673  53.2273833  77.6891313
   2.1721673  52.4513833  78.0601313   3.0081673  53.0803833  77.1741313
   2.3991673  53.0903833  77.6681313   4.6111673  52.7433833  76.0911313
   5.2331673  52.9063833  76.6811313   4.6471673  53.4343833  75.5591313
   4.7081673  52.8693833  76.1001313  11.6871673  46.4133833  88.0871313
  11.7421673  46.5383833  87.2251313  12.4401673  46.7333833  88.3891313
  11.8061673  46.4783833  88.0041313   7.4181673  46.2193833  87.6871313
   7.2631673  46.8293833  88.2911313   7.9521673  45.6613833  88.0931313
   7.4741673  46.2273833  87.8361313   5.8021673  44.6193833  78.3451313
   5.8611673  45.2693833  78.9241313   5.6131673  43.9233833  78.8361313
   5.7831673  44.6123833  78.5031313  11.0281673  48.9483833  84.2141313
  10.5491673  49.2463833  83.5481313  10.6721673  48.1723833  84.3921313
  10.9051673  48.8773833  84.1421313   5.0251673  46.6663833  82.7761313
   4.1781673  46.4723833  82.8571313   5.3491673  46.5013833  83.5691313
   4.9471673  46.6133833  82.9051313   1.7771673  53.3963833  73.6621313
   2.2161673  52.6993833  73.9501313   1.9841673  54.0203833  74.2351313
   1.8731673  53.3853833  73.7891313   2.1031673  41.5303833  81.8271313
   2.9491673  41.3403833  81.9251313   1.7331673  40.7533833  81.6891313
   2.1731673  41.3873833  81.8211313  14.7201673  53.1143833  76.1541313
  15.4141673  52.6473833  75.9061313  14.1811673  52.5163833  76.4911313
  14.7431673  52.9563833  76.1671313  11.9591673  45.8903833  85.3331313
  11.9521673  45.1143833  85.7311313  11.1181673  46.1243833  85.3261313
  11.8341673  45.8103833  85.3911313  13.2151673  45.9613833  82.7701313
  12.9291673  46.3623833  83.4901313  14.0751673  45.8993833  82.8971313
  13.3001673  46.0113833  82.8951313   2.9041673  42.7633833  76.6781313
   3.1761673  43.5893833  76.7451313   2.0411673  42.8383833  76.5821313
   2.8171673  42.8963833  76.6731313  14.3461673  51.5943833  83.2991313
  14.6361673  51.8513833  82.5181313  15.0411673  51.6903833  83.8181313
  14.4921673  51.6463833  83.2601313  10.9511673  50.1973833  75.2811313
  11.2851673  49.3913833  75.3161313  10.1961673  50.1253833  75.7111313
  10.8891673  50.0673833  75.3501313  11.4331673  42.0313833  80.9401313
  10.6881673  41.7083833  81.2581313  11.4351673  42.8573833  81.2201313
  11.3231673  42.1053833  81.0281313  13.8731673  47.9913833  88.6921313
  14.5011673  47.4423833  88.4361313  13.8121673  48.5563833  88.0301313
  13.9571673  47.9943833  88.5561313   8.3251673  48.0723833  74.6841313
   9.0091673  47.5583833  74.5151313   7.9081673  48.1183833  73.9191313
   8.3641673  48.0033833  74.5461313   3.0071673  49.2223833  85.9881313
   2.7091673  49.8143833  86.5551313   3.0621673  49.6643833  85.2391313
   2.9711673  49.3753833  85.9611313  10.3451673  38.3613833  88.4011313
  11.0891673  38.8133833  88.3381313   9.7791673  38.8313833  87.9321313
  10.3721673  38.4983833  88.3231313   5.5231673  45.6453833  85.4791313
   5.9991673  46.0193833  86.1071313   4.7001673  45.7793833  85.7381313
   5.4721673  45.7203833  85.6101313   2.2331673  41.2483833  88.2201313
   2.3941673  40.5043833  88.6471313   2.1881673  40.9993833  87.3851313
   2.2501673  41.1013833  88.1601313   4.7871673  53.0383833  80.7071313
   5.3331673  53.7173833  80.7611313   4.4371673  53.1203833  79.9121313
   4.8161673  53.1513833  80.5971313  11.6301673  36.3413833  86.0711313
  11.3501673  37.1663833  86.0271313  12.3461673  36.3943833  86.5671313
  11.6951673  36.4713833  86.1381313   3.9851673  37.0563833  88.1001313
   4.6901673  37.3763833  87.6981313   4.2261673  36.2493833  88.3271313
   4.1241673  36.9843833  88.0741313   2.9701673  51.2663833  84.0961313
   2.3461673  51.8483833  83.9141313   3.2181673  50.9803833  83.3101313
   2.9141673  51.3103833  83.9531313  13.0511673  42.5963833  74.9281313
  13.4291673  43.2733833  74.5281313  12.2091673  42.8203833  74.9591313
  12.9821673  42.7293833  74.8731313   4.5641673  46.0423833  74.0111313
   3.7591673  45.8653833  73.7261313   4.5311673  46.8933833  74.2031313
   4.4401673  46.1413833  73.9981313   8.1981673  42.7483833  86.0511313
   8.5001673  43.1683833  86.7541313   8.2341673  41.9083833  86.2831313
   8.2481673  42.6863833  86.1891313  10.7461673  42.1953833  78.3031313
  10.9531673  41.9943833  79.1271313  11.5021673  42.4633833  77.9611313
  10.8881673  42.2053833  78.3741313   4.0411673  37.0943833  84.2081313
   3.2151673  36.9453833  84.4451313   4.0011673  37.1293833  83.3371313
   3.9131673  37.0773833  84.1141313  11.7681673  38.2783833  79.7771313
  11.0541673  37.8073833  79.9481313  11.6061673  38.6193833  78.9911313
  11.6391673  38.2593833  79.6861313  12.2111673  46.2223833  78.1571313
  12.6871673  45.4933833  78.1091313  11.3901673  45.9363833  78.0811313
  12.1601673  46.0723833  78.1381313   8.4271673  47.3893833  80.5121313
   8.5031673  47.7303833  81.3111313   8.5961673  46.5423833  80.6331313
   8.4631673  47.3143833  80.6481313   5.9491673  46.6633833  80.0771313
   5.6511673  46.3483833  80.8341313   6.6441673  47.1363833  80.3121313
   6.0081673  46.6863833  80.2241313   6.1711673  50.7813833  88.1041313
   6.8581673  50.6673833  88.6291313   6.3051673  51.5723833  87.7601313
   6.2921673  50.8813833  88.1311313   8.8601673  44.0553833  88.4911313
   8.6051673  43.3363833  88.9131313   9.6811673  44.1713833  88.7611313
   8.9441673  43.9663833  88.5931313   9.8781673  53.6193833  82.6071313
   9.4271673  54.2623833  82.9861313  10.5861673  53.5403833  83.1121313
   9.9161673  53.7023833  82.7381313   6.5791673  48.7093833  85.5371313
   5.8851673  49.1113833  85.8801313   7.2561673  49.1423833  85.8761313
   6.5761673  48.8323833  85.6381313  12.9811673  43.3353833  77.5991313
  13.0841673  43.2773833  76.7351313  13.7221673  43.0033833  77.9171313
  13.1061673  43.2783833  77.5181313   6.9011673  50.3003833  78.7061313
   6.6961673  51.1333833  78.5471313   6.1261673  49.9183833  78.8281313
   6.7561673  50.3673833  78.7011313  12.0831673  43.4813833  86.9551313
  12.0811673  42.6183833  87.0791313  12.1501673  43.8053833  87.7621313
  12.0931673  43.4013833  87.0921313   6.9561673  38.4713833  81.5911313
   6.2561673  38.9893833  81.5351313   6.9941673  38.0913833  80.8071313
   6.8581673  38.4923833  81.4671313   2.2631673  50.5623833  75.1151313
   2.7041673  50.6423833  75.8631313   1.4581673  50.3463833  75.3731313
   2.2091673  50.5423833  75.2641313  10.5541673  38.9873833  84.3911313
  11.4091673  39.0863833  84.5361313  10.1851673  39.5403833  84.9561313
  10.6261673  39.0843833  84.4961313  10.8581673  44.2673833  82.8821313
  11.5241673  44.8083833  83.0421313  10.5131673  44.5783833  82.1431313
  10.9051673  44.3933833  82.7971313  11.1711673  52.3333833  78.6891313
  10.9971673  51.6793833  79.2391313  11.8841673  52.0623833  78.2661313
  11.2511673  52.1963833  78.7081313   2.4111673  47.8773833  74.4591313
   1.5931673  47.6093833  74.5991313   2.3831673  48.7293833  74.6441313
   2.2861673  47.9643833  74.5071313  14.0291673  36.8253833  87.5471313
  13.9771673  36.7813833  88.4171313  14.7161673  36.3223833  87.3571313
  14.1231673  36.7453833  87.6471313   6.1141673  38.9383833  84.5921313
   5.3771673  38.4843833  84.7051313   6.6851673  38.5363833  85.1151313
   6.0891673  38.8113833  84.6861313   8.8461673  49.7863833  86.3801313
   9.0521673  50.0873833  87.1721313   8.7851673  50.5083833  85.8951313
   8.8671673  49.9373833  86.4251313   4.4131673  36.5193833  74.4231313
   4.4911673  36.7663833  73.5901313   3.6701673  36.8963833  74.6811313
   4.3151673  36.6113833  74.3381313  13.6581673  48.4253833  85.8381313
  13.6261673  47.5633833  85.7031313  12.9651673  48.7273833  85.4041313
  13.5511673  48.3423833  85.7541313  11.7631673  51.6853833  84.6351313
  12.2901673  51.6023833  83.9441313  11.3721673  50.9073833  84.6891313
  11.7831673  51.5583833  84.5411313   8.2771673  37.1293833  83.8431313
   8.9471673  37.6733833  83.9701313   7.7741673  37.5533833  83.2701313
   8.3021673  37.2723833  83.7771313   7.6361673  42.9373833  81.3361313
   8.1871673  42.3303833  81.6361313   7.2111673  43.2003833  82.0511313
   7.6551673  42.8863833  81.4851313   9.6061673  44.7683833  77.8981313
   9.6741673  43.9183833  78.0791313   8.7831673  44.8543833  77.6201313
   9.4941673  44.6553833  77.8841313   3.5251673  45.6593833  76.8361313
   3.6251673  45.7983833  75.9811313   4.3431673  45.5993833  77.1321313
   3.6601673  45.6703833  76.7531313  12.6851673  53.7233833  74.3161313
  13.3221673  53.5893833  74.8971313  12.3441673  52.9293833  74.1991313
  12.7291673  53.5863833  74.3841313   8.7601673  49.9883833  76.6381313
   8.5091673  49.8603833  77.4641313   8.4431673  49.2933833  76.2171313
   8.6761673  49.8673833  76.6981313  13.4041673  41.6463833  84.7581313
  12.5711673  41.8963833  84.6861313  13.3481673  40.8063833  84.9871313
  13.2731673  41.5593833  84.7811313   5.6461673  48.1963833  76.0681313
   6.3631673  47.8493833  75.7121313   5.6121673  48.9963833  75.7201313
   5.7471673  48.2633833  75.9641313   7.0551673  36.8373833  60.3068903
   6.8101673  37.3253833  59.6268903   7.9181673  36.7643833  60.2068903
   7.1461673  36.8983833  60.1918903   6.8641673  43.7533833  64.9778903
   6.3401673  44.3493833  65.3408903   7.2611673  43.3853833  65.6618903
   6.8451673  43.7873833  65.1328903  13.0081673  51.1943833  57.9488903
  13.7091673  50.6753833  57.9448903  12.4211673  50.7493833  57.4798903
  13.0251673  51.0513833  57.8788903   9.5351673  44.8203833  61.6538903
   9.6151673  44.8243833  60.7848903   8.9511673  44.1883833  61.8028903
   9.4601673  44.7273833  61.5478903   3.5241673  37.9243833  59.4618903
   3.4541673  38.6013833  58.9158903   4.2651673  37.5363833  59.2128903
   3.6231673  37.9673833  59.3438903   3.2471673  48.1533833  71.7558903
   3.0111673  48.1503833  72.5958903   2.4991673  48.0053833  71.3318903
   3.1011673  48.1303833  71.8168903   2.6271673  40.7593833  66.2378903
   3.3051673  40.7773833  65.6888903   2.5821673  39.9233833  66.4828903
   2.7201673  40.6383833  66.1928903   3.2291673  51.3453833  69.0188903
   3.3671673  52.1053833  68.6118903   4.0201673  50.9803833  69.0458903
   3.3661673  51.4043833  68.9628903   4.3241673  49.2303833  63.5238903
   4.6721673  48.4313833  63.5538903   4.9891673  49.7343833  63.2688903
   4.4741673  49.1863833  63.4908903   4.3811673  48.6793833  59.7348903
   4.7121673  48.0353833  60.2208903   4.6211673  48.4683833  58.9238903
   4.4651673  48.5533833  59.6868903   6.3491673  42.8103833  71.0738903
   5.5011673  42.7113833  70.8958903   6.3781673  43.5553833  71.5278903
   6.2281673  42.9063833  71.1148903  10.9071673  35.7703833  70.1878903
  10.7491673  36.5393833  69.8058903  10.1351673  35.5503833  70.5318903
  10.7691673  35.8513833  70.1828903   3.6961673  37.4853833  62.4028903
   3.7691673  38.3453833  62.5318903   3.6581673  37.4103833  61.5348903
   3.7011673  37.6013833  62.2938903   8.3691673  40.4113833  54.7018903
   7.9191673  41.0923833  55.0088903   8.4831673  39.9073833  55.4048903
   8.3201673  40.4373833  54.8508903   2.3251673  50.4643833  59.2838903
   1.7461673  50.1893833  59.8758903   2.9491673  49.8553833  59.3088903
   2.3321673  50.3343833  59.3748903   8.4681673  52.7523833  56.8058903
   9.1951673  53.2243833  56.9078903   8.6971673  51.9583833  57.0858903
   8.6101673  52.7053833  56.8628903   6.6361673  53.1443833  58.7958903
   6.8501673  53.6713833  59.4578903   7.4031673  52.9703833  58.4168903
   6.7811673  53.1963833  58.8378903   2.9101673  39.8603833  73.6928903
   3.0271673  39.4063833  72.9568903   3.1981673  40.6583833  73.4898903
   2.9701673  39.9113833  73.5538903  13.7631673  40.3843833  60.9968903
  13.4171673  41.0623833  61.4228903  13.1271673  39.7863833  61.0128903
  13.6181673  40.3963833  61.0618903   9.0751673  53.1543833  67.1008903
   9.8191673  53.6103833  67.0908903   8.9541673  52.9403833  66.2638903
   9.1671673  53.1903833  66.9758903   2.0791673  52.6293833  62.5308903
   2.9231673  52.7333833  62.3358903   1.7821673  53.4473833  62.5988903
   2.1601673  52.7653833  62.5118903   5.2921673  37.1003833  71.8448903
   5.4701673  36.2913833  71.5698903   5.1491673  37.5413833  71.1058903
   5.2971673  37.0463833  71.6948903   5.8861673  42.0263833  60.6178903
   6.1731673  41.7943833  59.8278903   6.6181673  42.1053833  61.0868903
   6.0361673  42.0033833  60.5708903   6.6081673  42.3653833  55.7388903
   6.8891673  43.1533833  55.9878903   5.8321673  42.5303833  55.3758903
   6.5351673  42.5063833  55.7218903  10.6491673  54.3393833  57.2058903
  11.3141673  54.1913833  56.6608903  11.0091673  54.2563833  57.9958903
  10.8011673  54.3053833  57.2418903  13.4381673  38.7073833  66.3658903
  14.1951673  38.7793833  65.9378903  13.5011673  37.9343833  66.7648903
  13.5591673  38.6043833  66.3608903   8.3291673  50.3393833  70.8048903
   8.2951673  50.7213833  71.5888903   9.1831673  50.2973833  70.6338903
   8.4501673  50.3893833  70.8958903   5.4671673  50.5363833  55.5548903
   5.2861673  51.0813833  56.2118903   6.2331673  50.8263833  55.2538903
   5.5531673  50.6603833  55.6078903   8.9741673  38.4323833  56.6088903
   9.5141673  37.7503833  56.6848903   9.0361673  38.8303833  57.3828903
   9.0631673  38.3903833  56.7348903   6.2321673  40.8083833  57.9228903
   5.7241673  40.1463833  57.6688903   6.2841673  41.3123833  57.2128903
   6.1651673  40.7853833  57.7808903   6.7811673  53.5033833  68.3028903
   7.5491673  53.4233833  67.8968903   6.1981673  53.3823833  67.6648903
   6.8081673  53.4733833  68.1488903   6.2321673  37.7493833  57.8138903
   5.7771673  37.3473833  57.1878903   7.0051673  37.9043833  57.4388903
   6.2791673  37.7133833  57.6658903  13.0581673  54.1063833  61.2038903
  12.6031673  54.8233833  61.4048903  12.4441673  53.5353833  60.9618903
  12.9001673  54.1283833  61.1978903   4.8301673  40.1163833  62.3358903
   4.9041673  40.6843833  61.6778903   4.9511673  40.6083833  63.0458903
   4.8581673  40.2733833  62.3438903  10.0551673  49.9513833  60.7478903
  10.7561673  49.4693833  60.9368903   9.3951673  49.3823833  60.7928903
  10.0611673  49.7963833  60.7818903   2.3941673  46.3723833  64.7088903
   2.5661673  46.1623833  65.5378903   1.7391673  45.8383833  64.4928903
   2.3231673  46.2623833  64.7998903   8.6221673  40.2863833  68.2238903
   8.5271673  40.6053833  69.0298903   8.0291673  39.6473833  68.1858903
   8.5201673  40.2383833  68.3378903   3.1441673  46.3103833  67.2988903
   3.1971673  47.1573833  67.5008903   2.8591673  45.9403833  68.0358903
   3.1101673  46.3803833  67.4368903   9.3211673  47.0053833  66.4288903
   8.8071673  46.5933833  66.9998903   9.1951673  47.8493833  66.6098903
   9.2271673  47.0693833  66.5398903   9.8781673  36.2303833  61.0598903
   9.9271673  35.9123833  61.8708903  10.2011673  35.5863833  60.5668903
   9.9331673  36.0883833  61.1068903  12.3421673  40.4663833  69.3678903
  13.1141673  40.2413833  69.7048903  11.8671673  40.6833833  70.0678903
  12.3861673  40.4653833  69.5208903  12.5741673  47.4443833  56.5558903
  12.6931673  47.1573833  57.3708903  13.3811673  47.4653833  56.2258903
  12.7101673  47.4053833  56.6278903  14.8081673  51.9533833  70.8098903
  14.1261673  52.2633833  70.3628903  14.4391673  51.4953833  71.4548903
  14.6521673  51.9313833  70.8388903  10.4691673  43.9813833  56.1408903
  10.2491673  44.7123833  55.7188903  10.0211673  44.0323833  56.8878903
  10.3701673  44.0963833  56.1888903   2.0781673  47.1833833  60.1218903
   2.7911673  47.6783833  60.2118903   2.3001673  46.6163833  59.4958903
   2.2161673  47.1723833  60.0428903   3.8811673  42.5363833  73.5378903
   3.3971673  43.1133833  73.9798903   3.8531673  42.8313833  72.7168903
   3.8051673  42.6653833  73.4818903  14.9791673  43.2203833  68.1498903
  15.1941673  42.4203833  67.8738903  14.1291673  43.2803833  67.9608903
  14.8851673  43.1113833  68.0808903  12.6581673  38.4003833  57.8728903
  13.4041673  37.9933833  58.0718903  12.9211673  39.1153833  57.4478903
  12.8071673  38.4463833  57.8398903   6.6011673  50.8863833  62.4488903
   6.0781673  51.5203833  62.1558903   6.9111673  50.5223833  61.7198903
   6.5691673  50.9263833  62.2978903   9.1121673  40.6883833  62.9458903
   9.4561673  40.8403833  63.7328903   8.6591673  39.9503833  63.0588903
   9.0961673  40.6013833  63.0788903   3.5881673  39.9083833  57.4028903
   3.5861673  39.7913833  56.5378903   3.4071673  40.7563833  57.4948903
   3.5611673  40.0163833  57.2888903  12.6421673  52.3353833  68.8998903
  11.9711673  52.8493833  69.1178903  12.7051673  52.4353833  68.0358903
  12.5521673  52.4263833  68.8048903  10.4331673  42.0203833  65.4998903
   9.7711673  42.3483833  65.9628903  10.6201673  42.6543833  64.9308903
  10.3631673  42.1623833  65.4838903   4.6381673  53.0843833  66.4958903
   4.3611673  52.4433833  65.9728903   4.4301673  53.8103833  66.0578903
   4.5671673  53.0973833  66.3538903   7.0781673  37.9263833  68.9288903
   7.2271673  37.1013833  68.6858903   7.4571673  37.9813833  69.7128903
   7.1561673  37.8123833  69.0088903   8.6261673  39.9893833  59.0108903
   9.1161673  40.7063833  58.9338903   7.8361673  40.2503833  58.7478903
   8.5821673  40.1333833  58.9608903   9.9401673  47.8673833  70.9208903
  10.4241673  48.5853833  71.0188903  10.3341673  47.4403833  70.2698903
  10.0701673  47.9103833  70.8388903   4.2361673  50.7123833  72.0978903
   4.5901673  50.5343833  72.8748903   3.8001673  49.9833833  71.8988903
   4.2241673  50.5783833  72.1838903   5.2081673  41.4593833  64.7358903
   5.6881673  42.1583833  64.9438903   5.5811673  40.8123833  65.1868903
   5.3341673  41.4673833  64.8328903   7.3971673  44.6283833  57.0098903
   7.3891673  45.3503833  56.5198903   6.7581673  44.7633833  57.5868903
   7.3021673  44.7553833  57.0228903  12.3691673  48.4983833  60.9908903
  12.7251673  48.1483833  61.7058903  12.3611673  47.8373833  60.4208903
  12.4211673  48.3483833  61.0118903   8.4141673  51.5643833  64.8348903
   7.8111673  51.2683833  64.2778903   8.9591673  52.0163833  64.3258903
   8.4051673  51.5873833  64.6768903   8.4271673  48.4153833  64.2348903
   7.6301673  48.6393833  64.5088903   8.6851673  47.8213833  64.8198903
   8.3471673  48.3603833  64.3618903   2.3191673  53.2273833  58.6828903
   2.1721673  52.4513833  59.0538903   3.0081673  53.0803833  58.1678903
   2.3991673  53.0903833  58.6618903   4.6111673  52.7433833  57.0848903
   5.2331673  52.9063833  57.6748903   4.6471673  53.4343833  56.5528903
   4.7081673  52.8693833  57.0938903  11.6871673  46.4133833  69.0808903
  11.7421673  46.5383833  68.2188903  12.4401673  46.7333833  69.3828903
  11.8061673  46.4783833  68.9978903   7.8781673  51.7623833  73.3578903
   8.0421673  52.0453833  74.1668903   8.1411673  52.4233833  72.8528903
   7.9411673  51.9023833  73.4028903  12.7191673  36.7113833  72.0678903
  12.0821673  36.3113833  71.6258903  12.7451673  36.2803833  72.8258903
  12.6291673  36.5893833  72.1138903   7.4181673  46.2193833  68.6808903
   7.2631673  46.8293833  69.2848903   7.9521673  45.6613833  69.0868903
   7.4741673  46.2273833  68.8298903   5.8021673  44.6193833  59.3388903
   5.8611673  45.2693833  59.9178903   5.6131673  43.9233833  59.8298903
   5.7831673  44.6123833  59.4968903  11.0281673  48.9483833  65.2078903
  10.5491673  49.2463833  64.5418903  10.6721673  48.1723833  65.3858903
  10.9051673  48.8773833  65.1358903   5.0251673  46.6663833  63.7698903
   4.1781673  46.4723833  63.8508903   5.3491673  46.5013833  64.5628903
   4.9471673  46.6133833  63.8988903   1.7771673  53.3963833  54.6558903
   2.2161673  52.6993833  54.9438903   1.9841673  54.0203833  55.2288903
   1.8731673  53.3853833  54.7828903   2.1031673  41.5303833  62.8208903
   2.9491673  41.3403833  62.9188903   1.7331673  40.7533833  62.6828903
   2.1731673  41.3873833  62.8148903  14.7201673  53.1143833  57.1478903
  15.4141673  52.6473833  56.8998903  14.1811673  52.5163833  57.4848903
  14.7431673  52.9563833  57.1608903  11.9591673  45.8903833  66.3268903
  11.9521673  45.1143833  66.7248903  11.1181673  46.1243833  66.3198903
  11.8341673  45.8103833  66.3848903  13.2151673  45.9613833  63.7638903
  12.9291673  46.3623833  64.4838903  14.0751673  45.8993833  63.8908903
  13.3001673  46.0113833  63.8888903   2.9041673  42.7633833  57.6718903
   3.1761673  43.5893833  57.7388903   2.0411673  42.8383833  57.5758903
   2.8171673  42.8963833  57.6668903  10.8771673  39.8853833  72.3038903
  10.3521673  40.3443833  72.8278903  10.5161673  39.0903833  72.2978903
  10.7461673  39.8353833  72.3798903  14.3461673  51.5943833  64.2928903
  14.6361673  51.8513833  63.5118903  15.0411673  51.6903833  64.8118903
  14.4921673  51.6463833  64.2538903   9.3691673  43.4543833  72.3798903
   9.4421673  43.5583833  73.2428903   8.7351673  44.0123833  72.1588903
   9.2861673  43.5523833  72.4748903  11.6371673  43.7733833  70.7448903
  11.9561673  44.5593833  70.9478903  11.2671673  43.5033833  71.4878903
  11.6301673  43.8493833  70.8848903  10.9511673  50.1973833  56.2748903
  11.2851673  49.3913833  56.3098903  10.1961673  50.1253833  56.7048903
  10.8891673  50.0673833  56.3438903  11.4331673  42.0313833  61.9338903
  10.6881673  41.7083833  62.2518903  11.4351673  42.8573833  62.2138903
  11.3231673  42.1053833  62.0218903  14.3351673  44.3153833  73.4798903
  14.2831673  43.9743833  72.6788903  15.0721673  44.7823833  73.4578903
  14.4361673  44.3343833  73.3578903  13.8731673  47.9913833  69.6858903
  14.5011673  47.4423833  69.4298903  13.8121673  48.5563833  69.0238903
  13.9571673  47.9943833  69.5498903   8.3251673  48.0723833  55.6778903
   9.0091673  47.5583833  55.5088903   7.9081673  48.1183833  54.9128903
   8.3641673  48.0033833  55.5398903   3.0071673  49.2223833  66.9818903
   2.7091673  49.8143833  67.5488903   3.0621673  49.6643833  66.2328903
   2.9711673  49.3753833  66.9548903  10.3451673  38.3613833  69.3948903
  11.0891673  38.8133833  69.3318903   9.7791673  38.8313833  68.9258903
  10.3721673  38.4983833  69.3168903   5.5231673  45.6453833  66.4728903
   5.9991673  46.0193833  67.1008903   4.7001673  45.7793833  66.7318903
   5.4721673  45.7203833  66.6038903   2.2331673  41.2483833  69.2138903
   2.3941673  40.5043833  69.6408903   2.1881673  40.9993833  68.3788903
   2.2501673  41.1013833  69.1538903   4.7871673  53.0383833  61.7008903
   5.3331673  53.7173833  61.7548903   4.4371673  53.1203833  60.9058903
   4.8161673  53.1513833  61.5908903  11.6301673  36.3413833  67.0648903
  11.3501673  37.1663833  67.0208903  12.3461673  36.3943833  67.5608903
  11.6951673  36.4713833  67.1318903   3.9851673  37.0563833  69.0938903
   4.6901673  37.3763833  68.6918903   4.2261673  36.2493833  69.3208903
   4.1241673  36.9843833  69.0678903   2.9701673  51.2663833  65.0898903
   2.3461673  51.8483833  64.9078903   3.2181673  50.9803833  64.3038903
   2.9141673  51.3103833  64.9468903   7.2791673  47.9003833  72.0788903
   8.0361673  48.1863833  71.7528903   6.7321673  47.9523833  71.4008903
   7.3101673  47.9503833  71.9298903  11.1881673  50.4503833  70.5828903
  11.5341673  50.7203833  71.3368903  11.4821673  51.0323833  70.0028903
  11.2831673  50.5763833  70.6088903  13.0511673  42.5963833  55.9218903
  13.4291673  43.2733833  55.5218903  12.2091673  42.8203833  55.9528903
  12.9821673  42.7293833  55.8668903   4.5641673  46.0423833  55.0048903
   3.7591673  45.8653833  54.7198903   4.5311673  46.8933833  55.1968903
   4.4401673  46.1413833  54.9918903   8.5101673  41.2113833  70.7468903
   7.8621673  41.6813833  71.0948903   9.0751673  41.1223833  71.4058903
   8.4981673  41.2673833  70.8958903   8.1981673  42.7483833  67.0448903
   8.5001673  43.1683833  67.7478903   8.2341673  41.9083833  67.2768903
   8.2481673  42.6863833  67.1828903   5.6231673  52.9153833  70.9698903
   6.1011673  52.3153833  70.5538903   5.2721673  52.4723833  71.6348903
   5.6421673  52.7613833  71.0068903  10.7461673  42.1953833  59.2968903
  10.9531673  41.9943833  60.1208903  11.5021673  42.4633833  58.9548903
  10.8881673  42.2053833  59.3678903   4.0411673  37.0943833  65.2018903
   3.2151673  36.9453833  65.4388903   4.0011673  37.1293833  64.3308903
   3.9131673  37.0773833  65.1078903  11.7681673  38.2783833  60.7708903
  11.0541673  37.8073833  60.9418903  11.6061673  38.6193833  59.9848903
  11.6391673  38.2593833  60.6798903  12.2111673  46.2223833  59.1508903
  12.6871673  45.4933833  59.1028903  11.3901673  45.9363833  59.0748903
  12.1601673  46.0723833  59.1318903   5.6821673  48.1343833  69.9898903
   4.8871673  48.0703833  70.3408903   5.7531673  48.9813833  69.7948903
   5.5751673  48.2493833  70.0128903   8.4271673  47.3893833  61.5058903
   8.5031673  47.7303833  62.3048903   8.5961673  46.5423833  61.6268903
   8.4631673  47.3143833  61.6418903   5.9491673  46.6633833  61.0708903
   5.6511673  46.3483833  61.8278903   6.6441673  47.1363833  61.3058903
   6.0081673  46.6863833  61.2178903   6.1711673  50.7813833  69.0978903
   6.8581673  50.6673833  69.6228903   6.3051673  51.5723833  68.7538903
   6.2921673  50.8813833  69.1248903  14.3471673  43.3903833  70.9088903
  13.4921673  43.2683833  71.0348903  14.5001673  42.9953833  70.1458903
  14.2431673  43.3133833  70.8148903   8.8601673  44.0553833  69.4848903
   8.6051673  43.3363833  69.9068903   9.6811673  44.1713833  69.7548903
   8.9441673  43.9663833  69.5868903   6.7941673  45.2453833  72.6718903
   7.1171673  45.9313833  72.2398903   6.0901673  45.5683833  73.0738903
   6.7371673  45.3943833  72.6668903   9.8781673  53.6193833  63.6008903
   9.4271673  54.2623833  63.9798903  10.5861673  53.5403833  64.1058903
   9.9161673  53.7023833  63.7318903   6.5791673  48.7093833  66.5308903
   5.8851673  49.1113833  66.8738903   7.2561673  49.1423833  66.8698903
   6.5761673  48.8323833  66.6318903  11.9561673  51.3023833  73.1108903
  12.7321673  50.9123833  73.1938903  11.4871673  50.9663833  73.7658903
  12.0011673  51.1953833  73.2198903  12.9811673  43.3353833  58.5928903
  13.0841673  43.2773833  57.7288903  13.7221673  43.0033833  58.9108903
  13.1061673  43.2783833  58.5118903   6.9011673  50.3003833  59.6998903
   6.6961673  51.1333833  59.5408903   6.1261673  49.9183833  59.8218903
   6.7561673  50.3673833  59.6948903  12.0831673  43.4813833  67.9488903
  12.0811673  42.6183833  68.0728903  12.1501673  43.8053833  68.7558903
  12.0931673  43.4013833  68.0858903   7.9621673  38.2813833  71.7308903
   8.0541673  38.9933833  72.2248903   7.3251673  37.8363833  72.1278903
   7.8811673  38.3203833  71.8628903   6.9561673  38.4713833  62.5848903
   6.2561673  38.9893833  62.5288903   6.9941673  38.0913833  61.8008903
   6.8581673  38.4923833  62.4608903   2.2631673  50.5623833  56.1088903
   2.7041673  50.6423833  56.8568903   1.4581673  50.3463833  56.3668903
   2.2091673  50.5423833  56.2578903  10.5541673  38.9873833  65.3848903
  11.4091673  39.0863833  65.5298903  10.1851673  39.5403833  65.9498903
  10.6261673  39.0843833  65.4898903  10.8581673  44.2673833  63.8758903
  11.5241673  44.8083833  64.0358903  10.5131673  44.5783833  63.1368903
  10.9051673  44.3933833  63.7908903  11.1711673  52.3333833  59.6828903
  10.9971673  51.6793833  60.2328903  11.8841673  52.0623833  59.2598903
  11.2511673  52.1963833  59.7018903   2.4111673  47.8773833  55.4528903
   1.5931673  47.6093833  55.5928903   2.3831673  48.7293833  55.6378903
   2.2861673  47.9643833  55.5008903  14.0291673  36.8253833  68.5408903
  13.9771673  36.7813833  69.4108903  14.7161673  36.3223833  68.3508903
  14.1231673  36.7453833  68.6408903   6.1141673  38.9383833  65.5858903
   5.3771673  38.4843833  65.6988903   6.6851673  38.5363833  66.1088903
   6.0891673  38.8113833  65.6798903   8.8461673  49.7863833  67.3738903
   9.0521673  50.0873833  68.1658903   8.7851673  50.5083833  66.8888903
   8.8671673  49.9373833  67.4188903   8.3801673  54.0003833  71.6198903
   7.6271673  53.9823833  71.1788903   8.5481673  54.8523833  71.7038903
   8.2941673  54.1233833  71.5668903   3.6171673  43.2673833  70.7898903
   3.2951673  42.6913833  70.2198903   3.2581673  44.0223833  70.5438903
   3.5171673  43.2933833  70.6698903   4.4131673  36.5193833  55.4168903
   4.4911673  36.7663833  54.5838903   3.6701673  36.8963833  55.6748903
   4.3151673  36.6113833  55.3318903  13.6581673  48.4253833  66.8318903
  13.6261673  47.5633833  66.6968903  12.9651673  48.7273833  66.3978903
  13.5511673  48.3423833  66.7478903   2.0521673  53.6233833  71.0378903
   2.0931673  53.7493833  71.9008903   2.7031673  53.0633833  70.8818903
   2.1541673  53.5593833  71.1428903  11.7631673  51.6853833  65.6288903
  12.2901673  51.6023833  64.9378903  11.3721673  50.9073833  65.6828903
  11.7831673  51.5583833  65.5348903   8.2771673  37.1293833  64.8368903
   8.9471673  37.6733833  64.9638903   7.7741673  37.5533833  64.2638903
   8.3021673  37.2723833  64.7708903   7.6361673  42.9373833  62.3298903
   8.1871673  42.3303833  62.6298903   7.2111673  43.2003833  63.0448903
   7.6551673  42.8863833  62.4788903   9.6061673  44.7683833  58.8918903
   9.6741673  43.9183833  59.0728903   8.7831673  44.8543833  58.6138903
   9.4941673  44.6553833  58.8778903   3.5251673  45.6593833  57.8298903
   3.6251673  45.7983833  56.9748903   4.3431673  45.5993833  58.1258903
   3.6601673  45.6703833  57.7468903  12.6851673  53.7233833  55.3098903
  13.3221673  53.5893833  55.8908903  12.3441673  52.9293833  55.1928903
  12.7291673  53.5863833  55.3778903  12.8801673  46.1413833  72.0428903
  13.5141673  45.9713833  72.6168903  13.2971673  46.5443833  71.3908903
  13.0351673  46.1763833  72.0318903   8.7601673  49.9883833  57.6318903
   8.5091673  49.8603833  58.4578903   8.4431673  49.2933833  57.2108903
   8.6761673  49.8673833  57.6918903  13.5051673  40.7053833  72.7808903
  13.3091673  41.3493833  73.3358903  12.7831673  40.2153833  72.7728903
  13.3701673  40.7283833  72.8618903  13.4041673  41.6463833  65.7518903
  12.5711673  41.8963833  65.6798903  13.3481673  40.8063833  65.9808903
  13.2731673  41.5593833  65.7748903   2.6641673  38.6343833  70.9458903
   2.8981673  38.0583833  70.3328903   1.8221673  38.4533833  71.0868903
   2.5741673  38.5223833  70.8758903  10.2911673  46.2523833  73.3978903
  11.1621673  46.2163833  73.3618903  10.0721673  46.6723833  72.6658903
  10.3881673  46.3083833  73.2848903   5.6461673  48.1963833  57.0618903
   6.3631673  47.8493833  56.7058903   5.6121673  48.9963833  56.7138903
   5.7471673  48.2633833  56.9578903   7.0551673  36.8373833  41.3006493
   6.8101673  37.3253833  40.6206493   7.9181673  36.7643833  41.2006493
   7.1461673  36.8983833  41.1856493   6.8641673  43.7533833  45.9716493
   6.3401673  44.3493833  46.3346493   7.2611673  43.3853833  46.6556493
   6.8451673  43.7873833  46.1266493  13.0081673  51.1943833  38.9426493
  13.7091673  50.6753833  38.9386493  12.4211673  50.7493833  38.4736493
  13.0251673  51.0513833  38.8726493   9.5351673  44.8203833  42.6476493
   9.6151673  44.8243833  41.7786493   8.9511673  44.1883833  42.7966493
   9.4601673  44.7273833  42.5416493   3.5241673  37.9243833  40.4556493
   3.4541673  38.6013833  39.9096493   4.2651673  37.5363833  40.2066493
   3.6231673  37.9673833  40.3376493   3.2471673  48.1533833  52.7496493
   3.0111673  48.1503833  53.5896493   2.4991673  48.0053833  52.3256493
   3.1011673  48.1303833  52.8106493   2.6271673  40.7593833  47.2316493
   3.3051673  40.7773833  46.6826493   2.5821673  39.9233833  47.4766493
   2.7201673  40.6383833  47.1866493   3.2291673  51.3453833  50.0126493
   3.3671673  52.1053833  49.6056493   4.0201673  50.9803833  50.0396493
   3.3661673  51.4043833  49.9566493   4.3241673  49.2303833  44.5176493
   4.6721673  48.4313833  44.5476493   4.9891673  49.7343833  44.2626493
   4.4741673  49.1863833  44.4846493   4.3811673  48.6793833  40.7286493
   4.7121673  48.0353833  41.2146493   4.6211673  48.4683833  39.9176493
   4.4651673  48.5533833  40.6806493   6.3491673  42.8103833  52.0676493
   5.5011673  42.7113833  51.8896493   6.3781673  43.5553833  52.5216493
   6.2281673  42.9063833  52.1086493  10.9071673  35.7703833  51.1816493
  10.7491673  36.5393833  50.7996493  10.1351673  35.5503833  51.5256493
  10.7691673  35.8513833  51.1766493   3.6961673  37.4853833  43.3966493
   3.7691673  38.3453833  43.5256493   3.6581673  37.4103833  42.5286493
   3.7011673  37.6013833  43.2876493   8.3691673  40.4113833  35.6956493
   7.9191673  41.0923833  36.0026493   8.4831673  39.9073833  36.3986493
   8.3201673  40.4373833  35.8446493   2.3251673  50.4643833  40.2776493
   1.7461673  50.1893833  40.8696493   2.9491673  49.8553833  40.3026493
   2.3321673  50.3343833  40.3686493   8.4681673  52.7523833  37.7996493
   9.1951673  53.2243833  37.9016493   8.6971673  51.9583833  38.0796493
   8.6101673  52.7053833  37.8566493   6.6361673  53.1443833  39.7896493
   6.8501673  53.6713833  40.4516493   7.4031673  52.9703833  39.4106493
   6.7811673  53.1963833  39.8316493   2.9101673  39.8603833  54.6866493
   3.0271673  39.4063833  53.9506493   3.1981673  40.6583833  54.4836493
   2.9701673  39.9113833  54.5476493  13.7631673  40.3843833  41.9906493
  13.4171673  41.0623833  42.4166493  13.1271673  39.7863833  42.0066493
  13.6181673  40.3963833  42.0556493   9.0751673  53.1543833  48.0946493
   9.8191673  53.6103833  48.0846493   8.9541673  52.9403833  47.2576493
   9.1671673  53.1903833  47.9696493   2.0791673  52.6293833  43.5246493
   2.9231673  52.7333833  43.3296493   1.7821673  53.4473833  43.5926493
   2.1601673  52.7653833  43.5056493   5.2921673  37.1003833  52.8386493
   5.4701673  36.2913833  52.5636493   5.1491673  37.5413833  52.0996493
   5.2971673  37.0463833  52.6886493   5.8861673  42.0263833  41.6116493
   6.1731673  41.7943833  40.8216493   6.6181673  42.1053833  42.0806493
   6.0361673  42.0033833  41.5646493   6.6081673  42.3653833  36.7326493
   6.8891673  43.1533833  36.9816493   5.8321673  42.5303833  36.3696493
   6.5351673  42.5063833  36.7156493  10.6491673  54.3393833  38.1996493
  11.3141673  54.1913833  37.6546493  11.0091673  54.2563833  38.9896493
  10.8011673  54.3053833  38.2356493  13.4381673  38.7073833  47.3596493
  14.1951673  38.7793833  46.9316493  13.5011673  37.9343833  47.7586493
  13.5591673  38.6043833  47.3546493   8.3291673  50.3393833  51.7986493
   8.2951673  50.7213833  52.5826493   9.1831673  50.2973833  51.6276493
   8.4501673  50.3893833  51.8896493   5.4671673  50.5363833  36.5486493
   5.2861673  51.0813833  37.2056493   6.2331673  50.8263833  36.2476493
   5.5531673  50.6603833  36.6016493   8.9741673  38.4323833  37.6026493
   9.5141673  37.7503833  37.6786493   9.0361673  38.8303833  38.3766493
   9.0631673  38.3903833  37.7286493   6.2321673  40.8083833  38.9166493
   5.7241673  40.1463833  38.6626493   6.2841673  41.3123833  38.2066493
   6.1651673  40.7853833  38.7746493   6.7811673  53.5033833  49.2966493
   7.5491673  53.4233833  48.8906493   6.1981673  53.3823833  48.6586493
   6.8081673  53.4733833  49.1426493   6.2321673  37.7493833  38.8076493
   5.7771673  37.3473833  38.1816493   7.0051673  37.9043833  38.4326493
   6.2791673  37.7133833  38.6596493  13.0581673  54.1063833  42.1976493
  12.6031673  54.8233833  42.3986493  12.4441673  53.5353833  41.9556493
  12.9001673  54.1283833  42.1916493   4.8301673  40.1163833  43.3296493
   4.9041673  40.6843833  42.6716493   4.9511673  40.6083833  44.0396493
   4.8581673  40.2733833  43.3376493  10.0551673  49.9513833  41.7416493
  10.7561673  49.4693833  41.9306493   9.3951673  49.3823833  41.7866493
  10.0611673  49.7963833  41.7756493   2.3941673  46.3723833  45.7026493
   2.5661673  46.1623833  46.5316493   1.7391673  45.8383833  45.4866493
   2.3231673  46.2623833  45.7936493   8.6221673  40.2863833  49.2176493
   8.5271673  40.6053833  50.0236493   8.0291673  39.6473833  49.1796493
   8.5201673  40.2383833  49.3316493   3.1441673  46.3103833  48.2926493
   3.1971673  47.1573833  48.4946493   2.8591673  45.9403833  49.0296493
   3.1101673  46.3803833  48.4306493   9.3211673  47.0053833  47.4226493
   8.8071673  46.5933833  47.9936493   9.1951673  47.8493833  47.6036493
   9.2271673  47.0693833  47.5336493   9.8781673  36.2303833  42.0536493
   9.9271673  35.9123833  42.8646493  10.2011673  35.5863833  41.5606493
   9.9331673  36.0883833  42.1006493  12.3421673  40.4663833  50.3616493
  13.1141673  40.2413833  50.6986493  11.8671673  40.6833833  51.0616493
  12.3861673  40.4653833  50.5146493  12.5741673  47.4443833  37.5496493
  12.6931673  47.1573833  38.3646493  13.3811673  47.4653833  37.2196493
  12.7101673  47.4053833  37.6216493  14.8081673  51.9533833  51.8036493
  14.1261673  52.2633833  51.3566493  14.4391673  51.4953833  52.4486493
  14.6521673  51.9313833  51.8326493  10.4691673  43.9813833  37.1346493
  10.2491673  44.7123833  36.7126493  10.0211673  44.0323833  37.8816493
  10.3701673  44.0963833  37.1826493   2.0781673  47.1833833  41.1156493
   2.7911673  47.6783833  41.2056493   2.3001673  46.6163833  40.4896493
   2.2161673  47.1723833  41.0366493  14.6561673  38.8423833  36.5876493
  13.9941673  38.2743833  36.6106493  14.4631673  39.3543833  35.9076493
  14.5301673  38.8343833  36.4906493   3.8811673  42.5363833  54.5316493
   3.3971673  43.1133833  54.9736493   3.8531673  42.8313833  53.7106493
   3.8051673  42.6653833  54.4756493  14.9791673  43.2203833  49.1436493
  15.1941673  42.4203833  48.8676493  14.1291673  43.2803833  48.9546493
  14.8851673  43.1113833  49.0746493  12.6581673  38.4003833  38.8666493
  13.4041673  37.9933833  39.0656493  12.9211673  39.1153833  38.4416493
  12.8071673  38.4463833  38.8336493   6.6011673  50.8863833  43.4426493
   6.0781673  51.5203833  43.1496493   6.9111673  50.5223833  42.7136493
   6.5691673  50.9263833  43.2916493   9.1121673  40.6883833  43.9396493
   9.4561673  40.8403833  44.7266493   8.6591673  39.9503833  44.0526493
   9.0961673  40.6013833  44.0726493   3.5881673  39.9083833  38.3966493
   3.5861673  39.7913833  37.5316493   3.4071673  40.7563833  38.4886493
   3.5611673  40.0163833  38.2826493  12.6421673  52.3353833  49.8936493
  11.9711673  52.8493833  50.1116493  12.7051673  52.4353833  49.0296493
  12.5521673  52.4263833  49.7986493  10.4331673  42.0203833  46.4936493
   9.7711673  42.3483833  46.9566493  10.6201673  42.6543833  45.9246493
  10.3631673  42.1623833  46.4776493   4.6381673  53.0843833  47.4896493
   4.3611673  52.4433833  46.9666493   4.4301673  53.8103833  47.0516493
   4.5671673  53.0973833  47.3476493   7.0781673  37.9263833  49.9226493
   7.2271673  37.1013833  49.6796493   7.4571673  37.9813833  50.7066493
   7.1561673  37.8123833  50.0026493   8.6261673  39.9893833  40.0046493
   9.1161673  40.7063833  39.9276493   7.8361673  40.2503833  39.7416493
   8.5821673  40.1333833  39.9546493   9.9401673  47.8673833  51.9146493
  10.4241673  48.5853833  52.0126493  10.3341673  47.4403833  51.2636493
  10.0701673  47.9103833  51.8326493   4.2361673  50.7123833  53.0916493
   4.5901673  50.5343833  53.8686493   3.8001673  49.9833833  52.8926493
   4.2241673  50.5783833  53.1776493   5.2081673  41.4593833  45.7296493
   5.6881673  42.1583833  45.9376493   5.5811673  40.8123833  46.1806493
   5.3341673  41.4673833  45.8266493   7.3971673  44.6283833  38.0036493
   7.3891673  45.3503833  37.5136493   6.7581673  44.7633833  38.5806493
   7.3021673  44.7553833  38.0166493  12.3691673  48.4983833  41.9846493
  12.7251673  48.1483833  42.6996493  12.3611673  47.8373833  41.4146493
  12.4211673  48.3483833  42.0056493   8.4141673  51.5643833  45.8286493
   7.8111673  51.2683833  45.2716493   8.9591673  52.0163833  45.3196493
   8.4051673  51.5873833  45.6706493   8.4271673  48.4153833  45.2286493
   7.6301673  48.6393833  45.5026493   8.6851673  47.8213833  45.8136493
   8.3471673  48.3603833  45.3556493   2.3191673  53.2273833  39.6766493
   2.1721673  52.4513833  40.0476493   3.0081673  53.0803833  39.1616493
   2.3991673  53.0903833  39.6556493   4.6111673  52.7433833  38.0786493
   5.2331673  52.9063833  38.6686493   4.6471673  53.4343833  37.5466493
   4.7081673  52.8693833  38.0876493  11.6871673  46.4133833  50.0746493
  11.7421673  46.5383833  49.2126493  12.4401673  46.7333833  50.3766493
  11.8061673  46.4783833  49.9916493   7.8781673  51.7623833  54.3516493
   8.0421673  52.0453833  55.1606493   8.1411673  52.4233833  53.8466493
   7.9411673  51.9023833  54.3966493  12.7191673  36.7113833  53.0616493
  12.0821673  36.3113833  52.6196493  12.7451673  36.2803833  53.8196493
  12.6291673  36.5893833  53.1076493   7.4181673  46.2193833  49.6746493
   7.2631673  46.8293833  50.2786493   7.9521673  45.6613833  50.0806493
   7.4741673  46.2273833  49.8236493   5.8021673  44.6193833  40.3326493
   5.8611673  45.2693833  40.9116493   5.6131673  43.9233833  40.8236493
   5.7831673  44.6123833  40.4906493  11.0281673  48.9483833  46.2016493
  10.5491673  49.2463833  45.5356493  10.6721673  48.1723833  46.3796493
  10.9051673  48.8773833  46.1296493   5.0251673  46.6663833  44.7636493
   4.1781673  46.4723833  44.8446493   5.3491673  46.5013833  45.5566493
   4.9471673  46.6133833  44.8926493   1.7771673  53.3963833  35.6496493
   2.2161673  52.6993833  35.9376493   1.9841673  54.0203833  36.2226493
   1.8731673  53.3853833  35.7766493   2.1031673  41.5303833  43.8146493
   2.9491673  41.3403833  43.9126493   1.7331673  40.7533833  43.6766493
   2.1731673  41.3873833  43.8086493  14.7201673  53.1143833  38.1416493
  15.4141673  52.6473833  37.8936493  14.1811673  52.5163833  38.4786493
  14.7431673  52.9563833  38.1546493  11.9591673  45.8903833  47.3206493
  11.9521673  45.1143833  47.7186493  11.1181673  46.1243833  47.3136493
  11.8341673  45.8103833  47.3786493  13.2151673  45.9613833  44.7576493
  12.9291673  46.3623833  45.4776493  14.0751673  45.8993833  44.8846493
  13.3001673  46.0113833  44.8826493   2.9041673  42.7633833  38.6656493
   3.1761673  43.5893833  38.7326493   2.0411673  42.8383833  38.5696493
   2.8171673  42.8963833  38.6606493  10.8771673  39.8853833  53.2976493
  10.3521673  40.3443833  53.8216493  10.5161673  39.0903833  53.2916493
  10.7461673  39.8353833  53.3736493  14.3461673  51.5943833  45.2866493
  14.6361673  51.8513833  44.5056493  15.0411673  51.6903833  45.8056493
  14.4921673  51.6463833  45.2476493   9.3691673  43.4543833  53.3736493
   9.4421673  43.5583833  54.2366493   8.7351673  44.0123833  53.1526493
   9.2861673  43.5523833  53.4686493  11.6371673  43.7733833  51.7386493
  11.9561673  44.5593833  51.9416493  11.2671673  43.5033833  52.4816493
  11.6301673  43.8493833  51.8786493  10.9511673  50.1973833  37.2686493
  11.2851673  49.3913833  37.3036493  10.1961673  50.1253833  37.6986493
  10.8891673  50.0673833  37.3376493  11.4331673  42.0313833  42.9276493
  10.6881673  41.7083833  43.2456493  11.4351673  42.8573833  43.2076493
  11.3231673  42.1053833  43.0156493  14.3351673  44.3153833  54.4736493
  14.2831673  43.9743833  53.6726493  15.0721673  44.7823833  54.4516493
  14.4361673  44.3343833  54.3516493  13.8731673  47.9913833  50.6796493
  14.5011673  47.4423833  50.4236493  13.8121673  48.5563833  50.0176493
  13.9571673  47.9943833  50.5436493   8.3251673  48.0723833  36.6716493
   9.0091673  47.5583833  36.5026493   7.9081673  48.1183833  35.9066493
   8.3641673  48.0033833  36.5336493   3.0071673  49.2223833  47.9756493
   2.7091673  49.8143833  48.5426493   3.0621673  49.6643833  47.2266493
   2.9711673  49.3753833  47.9486493  10.3451673  38.3613833  50.3886493
  11.0891673  38.8133833  50.3256493   9.7791673  38.8313833  49.9196493
  10.3721673  38.4983833  50.3106493   5.5231673  45.6453833  47.4666493
   5.9991673  46.0193833  48.0946493   4.7001673  45.7793833  47.7256493
   5.4721673  45.7203833  47.5976493   2.2331673  41.2483833  50.2076493
   2.3941673  40.5043833  50.6346493   2.1881673  40.9993833  49.3726493
   2.2501673  41.1013833  50.1476493   4.7871673  53.0383833  42.6946493
   5.3331673  53.7173833  42.7486493   4.4371673  53.1203833  41.8996493
   4.8161673  53.1513833  42.5846493  11.6301673  36.3413833  48.0586493
  11.3501673  37.1663833  48.0146493  12.3461673  36.3943833  48.5546493
  11.6951673  36.4713833  48.1256493   3.9851673  37.0563833  50.0876493
   4.6901673  37.3763833  49.6856493   4.2261673  36.2493833  50.3146493
   4.1241673  36.9843833  50.0616493   2.9701673  51.2663833  46.0836493
   2.3461673  51.8483833  45.9016493   3.2181673  50.9803833  45.2976493
   2.9141673  51.3103833  45.9406493   7.2791673  47.9003833  53.0726493
   8.0361673  48.1863833  52.7466493   6.7321673  47.9523833  52.3946493
   7.3101673  47.9503833  52.9236493  11.1881673  50.4503833  51.5766493
  11.5341673  50.7203833  52.3306493  11.4821673  51.0323833  50.9966493
  11.2831673  50.5763833  51.6026493  13.0511673  42.5963833  36.9156493
  13.4291673  43.2733833  36.5156493  12.2091673  42.8203833  36.9466493
  12.9821673  42.7293833  36.8606493   4.5641673  46.0423833  35.9986493
   3.7591673  45.8653833  35.7136493   4.5311673  46.8933833  36.1906493
   4.4401673  46.1413833  35.9856493   8.5101673  41.2113833  51.7406493
   7.8621673  41.6813833  52.0886493   9.0751673  41.1223833  52.3996493
   8.4981673  41.2673833  51.8896493   8.1981673  42.7483833  48.0386493
   8.5001673  43.1683833  48.7416493   8.2341673  41.9083833  48.2706493
   8.2481673  42.6863833  48.1766493   5.6231673  52.9153833  51.9636493
   6.1011673  52.3153833  51.5476493   5.2721673  52.4723833  52.6286493
   5.6421673  52.7613833  52.0006493  10.7461673  42.1953833  40.2906493
  10.9531673  41.9943833  41.1146493  11.5021673  42.4633833  39.9486493
  10.8881673  42.2053833  40.3616493   4.0411673  37.0943833  46.1956493
   3.2151673  36.9453833  46.4326493   4.0011673  37.1293833  45.3246493
   3.9131673  37.0773833  46.1016493  11.7681673  38.2783833  41.7646493
  11.0541673  37.8073833  41.9356493  11.6061673  38.6193833  40.9786493
  11.6391673  38.2593833  41.6736493  12.2111673  46.2223833  40.1446493
  12.6871673  45.4933833  40.0966493  11.3901673  45.9363833  40.0686493
  12.1601673  46.0723833  40.1256493   5.6821673  48.1343833  50.9836493
   4.8871673  48.0703833  51.3346493   5.7531673  48.9813833  50.7886493
   5.5751673  48.2493833  51.0066493   8.4271673  47.3893833  42.4996493
   8.5031673  47.7303833  43.2986493   8.5961673  46.5423833  42.6206493
   8.4631673  47.3143833  42.6356493   5.9491673  46.6633833  42.0646493
   5.6511673  46.3483833  42.8216493   6.6441673  47.1363833  42.2996493
   6.0081673  46.6863833  42.2116493   6.1711673  50.7813833  50.0916493
   6.8581673  50.6673833  50.6166493   6.3051673  51.5723833  49.7476493
   6.2921673  50.8813833  50.1186493  14.3471673  43.3903833  51.9026493
  13.4921673  43.2683833  52.0286493  14.5001673  42.9953833  51.1396493
  14.2431673  43.3133833  51.8086493   8.8601673  44.0553833  50.4786493
   8.6051673  43.3363833  50.9006493   9.6811673  44.1713833  50.7486493
   8.9441673  43.9663833  50.5806493   6.7941673  45.2453833  53.6656493
   7.1171673  45.9313833  53.2336493   6.0901673  45.5683833  54.0676493
   6.7371673  45.3943833  53.6606493   9.8781673  53.6193833  44.5946493
   9.4271673  54.2623833  44.9736493  10.5861673  53.5403833  45.0996493
   9.9161673  53.7023833  44.7256493   6.5791673  48.7093833  47.5246493
   5.8851673  49.1113833  47.8676493   7.2561673  49.1423833  47.8636493
   6.5761673  48.8323833  47.6256493  11.9561673  51.3023833  54.1046493
  12.7321673  50.9123833  54.1876493  11.4871673  50.9663833  54.7596493
  12.0011673  51.1953833  54.2136493  12.9811673  43.3353833  39.5866493
  13.0841673  43.2773833  38.7226493  13.7221673  43.0033833  39.9046493
  13.1061673  43.2783833  39.5056493   6.9011673  50.3003833  40.6936493
   6.6961673  51.1333833  40.5346493   6.1261673  49.9183833  40.8156493
   6.7561673  50.3673833  40.6886493  12.0831673  43.4813833  48.9426493
  12.0811673  42.6183833  49.0666493  12.1501673  43.8053833  49.7496493
  12.0931673  43.4013833  49.0796493   7.9621673  38.2813833  52.7246493
   8.0541673  38.9933833  53.2186493   7.3251673  37.8363833  53.1216493
   7.8811673  38.3203833  52.8566493   6.9561673  38.4713833  43.5786493
   6.2561673  38.9893833  43.5226493   6.9941673  38.0913833  42.7946493
   6.8581673  38.4923833  43.4546493   2.2631673  50.5623833  37.1026493
   2.7041673  50.6423833  37.8506493   1.4581673  50.3463833  37.3606493
   2.2091673  50.5423833  37.2516493  10.5541673  38.9873833  46.3786493
  11.4091673  39.0863833  46.5236493  10.1851673  39.5403833  46.9436493
  10.6261673  39.0843833  46.4836493  10.8581673  44.2673833  44.8696493
  11.5241673  44.8083833  45.0296493  10.5131673  44.5783833  44.1306493
  10.9051673  44.3933833  44.7846493  11.1711673  52.3333833  40.6766493
  10.9971673  51.6793833  41.2266493  11.8841673  52.0623833  40.2536493
  11.2511673  52.1963833  40.6956493   2.4111673  47.8773833  36.4466493
   1.5931673  47.6093833  36.5866493   2.3831673  48.7293833  36.6316493
   2.2861673  47.9643833  36.4946493  14.0291673  36.8253833  49.5346493
  13.9771673  36.7813833  50.4046493  14.7161673  36.3223833  49.3446493
  14.1231673  36.7453833  49.6346493   6.1141673  38.9383833  46.5796493
   5.3771673  38.4843833  46.6926493   6.6851673  38.5363833  47.1026493
   6.0891673  38.8113833  46.6736493   8.8461673  49.7863833  48.3676493
   9.0521673  50.0873833  49.1596493   8.7851673  50.5083833  47.8826493
   8.8671673  49.9373833  48.4126493   8.3801673  54.0003833  52.6136493
   7.6271673  53.9823833  52.1726493   8.5481673  54.8523833  52.6976493
   8.2941673  54.1233833  52.5606493   3.6171673  43.2673833  51.7836493
   3.2951673  42.6913833  51.2136493   3.2581673  44.0223833  51.5376493
   3.5171673  43.2933833  51.6636493   4.4131673  36.5193833  36.4106493
   4.4911673  36.7663833  35.5776493   3.6701673  36.8963833  36.6686493
   4.3151673  36.6113833  36.3256493  13.6581673  48.4253833  47.8256493
  13.6261673  47.5633833  47.6906493  12.9651673  48.7273833  47.3916493
  13.5511673  48.3423833  47.7416493   2.0521673  53.6233833  52.0316493
   2.0931673  53.7493833  52.8946493   2.7031673  53.0633833  51.8756493
   2.1541673  53.5593833  52.1366493  11.7631673  51.6853833  46.6226493
  12.2901673  51.6023833  45.9316493  11.3721673  50.9073833  46.6766493
  11.7831673  51.5583833  46.5286493   8.2771673  37.1293833  45.8306493
   8.9471673  37.6733833  45.9576493   7.7741673  37.5533833  45.2576493
   8.3021673  37.2723833  45.7646493   7.6361673  42.9373833  43.3236493
   8.1871673  42.3303833  43.6236493   7.2111673  43.2003833  44.0386493
   7.6551673  42.8863833  43.4726493   9.6061673  44.7683833  39.8856493
   9.6741673  43.9183833  40.0666493   8.7831673  44.8543833  39.6076493
   9.4941673  44.6553833  39.8716493   3.5251673  45.6593833  38.8236493
   3.6251673  45.7983833  37.9686493   4.3431673  45.5993833  39.1196493
   3.6601673  45.6703833  38.7406493  12.6851673  53.7233833  36.3036493
  13.3221673  53.5893833  36.8846493  12.3441673  52.9293833  36.1866493
  12.7291673  53.5863833  36.3716493  12.8801673  46.1413833  53.0366493
  13.5141673  45.9713833  53.6106493  13.2971673  46.5443833  52.3846493
  13.0351673  46.1763833  53.0256493   8.7601673  49.9883833  38.6256493
   8.5091673  49.8603833  39.4516493   8.4431673  49.2933833  38.2046493
   8.6761673  49.8673833  38.6856493  13.5051673  40.7053833  53.7746493
  13.3091673  41.3493833  54.3296493  12.7831673  40.2153833  53.7666493
  13.3701673  40.7283833  53.8556493  13.4041673  41.6463833  46.7456493
  12.5711673  41.8963833  46.6736493  13.3481673  40.8063833  46.9746493
  13.2731673  41.5593833  46.7686493   2.6641673  38.6343833  51.9396493
   2.8981673  38.0583833  51.3266493   1.8221673  38.4533833  52.0806493
   2.5741673  38.5223833  51.8696493  10.2911673  46.2523833  54.3916493
  11.1621673  46.2163833  54.3556493  10.0721673  46.6723833  53.6596493
  10.3881673  46.3083833  54.2786493   5.6461673  48.1963833  38.0556493
   6.3631673  47.8493833  37.6996493   5.6121673  48.9963833  37.7076493
   5.7471673  48.2633833  37.9516493   7.0551673  36.8373833  22.2944083
   6.8101673  37.3253833  21.6144083   7.9181673  36.7643833  22.1944083
   7.1461673  36.8983833  22.1794083   6.8641673  43.7533833  26.9654083
   6.3401673  44.3493833  27.3284083   7.2611673  43.3853833  27.6494083
   6.8451673  43.7873833  27.1204083  13.0081673  51.1943833  19.9364083
  13.7091673  50.6753833  19.9324083  12.4211673  50.7493833  19.4674083
  13.0251673  51.0513833  19.8664083   9.5351673  44.8203833  23.6414083
   9.6151673  44.8243833  22.7724083   8.9511673  44.1883833  23.7904083
   9.4601673  44.7273833  23.5354083   3.5241673  37.9243833  21.4494083
   3.4541673  38.6013833  20.9034083   4.2651673  37.5363833  21.2004083
   3.6231673  37.9673833  21.3314083   3.2471673  48.1533833  33.7434083
   3.0111673  48.1503833  34.5834083   2.4991673  48.0053833  33.3194083
   3.1011673  48.1303833  33.8044083   2.6271673  40.7593833  28.2254083
   3.3051673  40.7773833  27.6764083   2.5821673  39.9233833  28.4704083
   2.7201673  40.6383833  28.1804083   3.2291673  51.3453833  31.0064083
   3.3671673  52.1053833  30.5994083   4.0201673  50.9803833  31.0334083
   3.3661673  51.4043833  30.9504083   4.3241673  49.2303833  25.5114083
   4.6721673  48.4313833  25.5414083   4.9891673  49.7343833  25.2564083
   4.4741673  49.1863833  25.4784083   4.3811673  48.6793833  21.7224083
   4.7121673  48.0353833  22.2084083   4.6211673  48.4683833  20.9114083
   4.4651673  48.5533833  21.6744083   6.3491673  42.8103833  33.0614083
   5.5011673  42.7113833  32.8834083   6.3781673  43.5553833  33.5154083
   6.2281673  42.9063833  33.1024083  10.9071673  35.7703833  32.1754083
  10.7491673  36.5393833  31.7934083  10.1351673  35.5503833  32.5194083
  10.7691673  35.8513833  32.1704083   3.6961673  37.4853833  24.3904083
   3.7691673  38.3453833  24.5194083   3.6581673  37.4103833  23.5224083
   3.7011673  37.6013833  24.2814083   8.3691673  40.4113833  16.6894083
   7.9191673  41.0923833  16.9964083   8.4831673  39.9073833  17.3924083
   8.3201673  40.4373833  16.8384083   2.3251673  50.4643833  21.2714083
   1.7461673  50.1893833  21.8634083   2.9491673  49.8553833  21.2964083
   2.3321673  50.3343833  21.3624083   8.4681673  52.7523833  18.7934083
   9.1951673  53.2243833  18.8954083   8.6971673  51.9583833  19.0734083
   8.6101673  52.7053833  18.8504083   6.6361673  53.1443833  20.7834083
   6.8501673  53.6713833  21.4454083   7.4031673  52.9703833  20.4044083
   6.7811673  53.1963833  20.8254083   2.9101673  39.8603833  35.6804083
   3.0271673  39.4063833  34.9444083   3.1981673  40.6583833  35.4774083
   2.9701673  39.9113833  35.5414083  13.7631673  40.3843833  22.9844083
  13.4171673  41.0623833  23.4104083  13.1271673  39.7863833  23.0004083
  13.6181673  40.3963833  23.0494083   9.0751673  53.1543833  29.0884083
   9.8191673  53.6103833  29.0784083   8.9541673  52.9403833  28.2514083
   9.1671673  53.1903833  28.9634083   2.0791673  52.6293833  24.5184083
   2.9231673  52.7333833  24.3234083   1.7821673  53.4473833  24.5864083
   2.1601673  52.7653833  24.4994083   5.2921673  37.1003833  33.8324083
   5.4701673  36.2913833  33.5574083   5.1491673  37.5413833  33.0934083
   5.2971673  37.0463833  33.6824083   5.8861673  42.0263833  22.6054083
   6.1731673  41.7943833  21.8154083   6.6181673  42.1053833  23.0744083
   6.0361673  42.0033833  22.5584083   6.6081673  42.3653833  17.7264083
   6.8891673  43.1533833  17.9754083   5.8321673  42.5303833  17.3634083
   6.5351673  42.5063833  17.7094083  10.6491673  54.3393833  19.1934083
  11.3141673  54.1913833  18.6484083  11.0091673  54.2563833  19.9834083
  10.8011673  54.3053833  19.2294083  13.4381673  38.7073833  28.3534083
  14.1951673  38.7793833  27.9254083  13.5011673  37.9343833  28.7524083
  13.5591673  38.6043833  28.3484083   8.3291673  50.3393833  32.7924083
   8.2951673  50.7213833  33.5764083   9.1831673  50.2973833  32.6214083
   8.4501673  50.3893833  32.8834083   5.4671673  50.5363833  17.5424083
   5.2861673  51.0813833  18.1994083   6.2331673  50.8263833  17.2414083
   5.5531673  50.6603833  17.5954083   8.9741673  38.4323833  18.5964083
   9.5141673  37.7503833  18.6724083   9.0361673  38.8303833  19.3704083
   9.0631673  38.3903833  18.7224083   6.2321673  40.8083833  19.9104083
   5.7241673  40.1463833  19.6564083   6.2841673  41.3123833  19.2004083
   6.1651673  40.7853833  19.7684083   6.7811673  53.5033833  30.2904083
   7.5491673  53.4233833  29.8844083   6.1981673  53.3823833  29.6524083
   6.8081673  53.4733833  30.1364083   6.2321673  37.7493833  19.8014083
   5.7771673  37.3473833  19.1754083   7.0051673  37.9043833  19.4264083
   6.2791673  37.7133833  19.6534083  13.0581673  54.1063833  23.1914083
  12.6031673  54.8233833  23.3924083  12.4441673  53.5353833  22.9494083
  12.9001673  54.1283833  23.1854083   4.8301673  40.1163833  24.3234083
   4.9041673  40.6843833  23.6654083   4.9511673  40.6083833  25.0334083
   4.8581673  40.2733833  24.3314083  10.0551673  49.9513833  22.7354083
  10.7561673  49.4693833  22.9244083   9.3951673  49.3823833  22.7804083
  10.0611673  49.7963833  22.7694083   2.3941673  46.3723833  26.6964083
   2.5661673  46.1623833  27.5254083   1.7391673  45.8383833  26.4804083
   2.3231673  46.2623833  26.7874083   8.6221673  40.2863833  30.2114083
   8.5271673  40.6053833  31.0174083   8.0291673  39.6473833  30.1734083
   8.5201673  40.2383833  30.3254083   3.1441673  46.3103833  29.2864083
   3.1971673  47.1573833  29.4884083   2.8591673  45.9403833  30.0234083
   3.1101673  46.3803833  29.4244083   9.3211673  47.0053833  28.4164083
   8.8071673  46.5933833  28.9874083   9.1951673  47.8493833  28.5974083
   9.2271673  47.0693833  28.5274083   9.8781673  36.2303833  23.0474083
   9.9271673  35.9123833  23.8584083  10.2011673  35.5863833  22.5544083
   9.9331673  36.0883833  23.0944083  12.3421673  40.4663833  31.3554083
  13.1141673  40.2413833  31.6924083  11.8671673  40.6833833  32.0554083
  12.3861673  40.4653833  31.5084083  12.5741673  47.4443833  18.5434083
  12.6931673  47.1573833  19.3584083  13.3811673  47.4653833  18.2134083
  12.7101673  47.4053833  18.6154083  14.8081673  51.9533833  32.7974083
  14.1261673  52.2633833  32.3504083  14.4391673  51.4953833  33.4424083
  14.6521673  51.9313833  32.8264083  10.4691673  43.9813833  18.1284083
  10.2491673  44.7123833  17.7064083  10.0211673  44.0323833  18.8754083
  10.3701673  44.0963833  18.1764083   2.0781673  47.1833833  22.1094083
   2.7911673  47.6783833  22.1994083   2.3001673  46.6163833  21.4834083
   2.2161673  47.1723833  22.0304083  14.6561673  38.8423833  17.5814083
  13.9941673  38.2743833  17.6044083  14.4631673  39.3543833  16.9014083
  14.5301673  38.8343833  17.4844083   3.8811673  42.5363833  35.5254083
   3.3971673  43.1133833  35.9674083   3.8531673  42.8313833  34.7044083
   3.8051673  42.6653833  35.4694083  14.9791673  43.2203833  30.1374083
  15.1941673  42.4203833  29.8614083  14.1291673  43.2803833  29.9484083
  14.8851673  43.1113833  30.0684083  12.6581673  38.4003833  19.8604083
  13.4041673  37.9933833  20.0594083  12.9211673  39.1153833  19.4354083
  12.8071673  38.4463833  19.8274083   6.6011673  50.8863833  24.4364083
   6.0781673  51.5203833  24.1434083   6.9111673  50.5223833  23.7074083
   6.5691673  50.9263833  24.2854083   9.1121673  40.6883833  24.9334083
   9.4561673  40.8403833  25.7204083   8.6591673  39.9503833  25.0464083
   9.0961673  40.6013833  25.0664083   3.5881673  39.9083833  19.3904083
   3.5861673  39.7913833  18.5254083   3.4071673  40.7563833  19.4824083
   3.5611673  40.0163833  19.2764083  12.6421673  52.3353833  30.8874083
  11.9711673  52.8493833  31.1054083  12.7051673  52.4353833  30.0234083
  12.5521673  52.4263833  30.7924083  10.4331673  42.0203833  27.4874083
   9.7711673  42.3483833  27.9504083  10.6201673  42.6543833  26.9184083
  10.3631673  42.1623833  27.4714083   4.6381673  53.0843833  28.4834083
   4.3611673  52.4433833  27.9604083   4.4301673  53.8103833  28.0454083
   4.5671673  53.0973833  28.3414083   7.0781673  37.9263833  30.9164083
   7.2271673  37.1013833  30.6734083   7.4571673  37.9813833  31.7004083
   7.1561673  37.8123833  30.9964083   8.6261673  39.9893833  20.9984083
   9.1161673  40.7063833  20.9214083   7.8361673  40.2503833  20.7354083
   8.5821673  40.1333833  20.9484083   9.9401673  47.8673833  32.9084083
  10.4241673  48.5853833  33.0064083  10.3341673  47.4403833  32.2574083
  10.0701673  47.9103833  32.8264083   4.2361673  50.7123833  34.0854083
   4.5901673  50.5343833  34.8624083   3.8001673  49.9833833  33.8864083
   4.2241673  50.5783833  34.1714083   5.2081673  41.4593833  26.7234083
   5.6881673  42.1583833  26.9314083   5.5811673  40.8123833  27.1744083
   5.3341673  41.4673833  26.8204083   7.3971673  44.6283833  18.9974083
   7.3891673  45.3503833  18.5074083   6.7581673  44.7633833  19.5744083
   7.3021673  44.7553833  19.0104083  12.3691673  48.4983833  22.9784083
  12.7251673  48.1483833  23.6934083  12.3611673  47.8373833  22.4084083
  12.4211673  48.3483833  22.9994083   8.4141673  51.5643833  26.8224083
   7.8111673  51.2683833  26.2654083   8.9591673  52.0163833  26.3134083
   8.4051673  51.5873833  26.6644083   8.4271673  48.4153833  26.2224083
   7.6301673  48.6393833  26.4964083   8.6851673  47.8213833  26.8074083
   8.3471673  48.3603833  26.3494083   2.3191673  53.2273833  20.6704083
   2.1721673  52.4513833  21.0414083   3.0081673  53.0803833  20.1554083
   2.3991673  53.0903833  20.6494083   4.6111673  52.7433833  19.0724083
   5.2331673  52.9063833  19.6624083   4.6471673  53.4343833  18.5404083
   4.7081673  52.8693833  19.0814083  11.6871673  46.4133833  31.0684083
  11.7421673  46.5383833  30.2064083  12.4401673  46.7333833  31.3704083
  11.8061673  46.4783833  30.9854083   7.8781673  51.7623833  35.3454083
   8.0421673  52.0453833  36.1544083   8.1411673  52.4233833  34.8404083
   7.9411673  51.9023833  35.3904083  12.7191673  36.7113833  34.0554083
  12.0821673  36.3113833  33.6134083  12.7451673  36.2803833  34.8134083
  12.6291673  36.5893833  34.1014083   7.4181673  46.2193833  30.6684083
   7.2631673  46.8293833  31.2724083   7.9521673  45.6613833  31.0744083
   7.4741673  46.2273833  30.8174083   5.8021673  44.6193833  21.3264083
   5.8611673  45.2693833  21.9054083   5.6131673  43.9233833  21.8174083
   5.7831673  44.6123833  21.4844083  11.0281673  48.9483833  27.1954083
  10.5491673  49.2463833  26.5294083  10.6721673  48.1723833  27.3734083
  10.9051673  48.8773833  27.1234083   5.0251673  46.6663833  25.7574083
   4.1781673  46.4723833  25.8384083   5.3491673  46.5013833  26.5504083
   4.9471673  46.6133833  25.8864083   1.7771673  53.3963833  16.6434083
   2.2161673  52.6993833  16.9314083   1.9841673  54.0203833  17.2164083
   1.8731673  53.3853833  16.7704083   2.1031673  41.5303833  24.8084083
   2.9491673  41.3403833  24.9064083   1.7331673  40.7533833  24.6704083
   2.1731673  41.3873833  24.8024083  14.7201673  53.1143833  19.1354083
  15.4141673  52.6473833  18.8874083  14.1811673  52.5163833  19.4724083
  14.7431673  52.9563833  19.1484083  11.9591673  45.8903833  28.3144083
  11.9521673  45.1143833  28.7124083  11.1181673  46.1243833  28.3074083
  11.8341673  45.8103833  28.3724083  13.2151673  45.9613833  25.7514083
  12.9291673  46.3623833  26.4714083  14.0751673  45.8993833  25.8784083
  13.3001673  46.0113833  25.8764083   2.9041673  42.7633833  19.6594083
   3.1761673  43.5893833  19.7264083   2.0411673  42.8383833  19.5634083
   2.8171673  42.8963833  19.6544083  10.8771673  39.8853833  34.2914083
  10.3521673  40.3443833  34.8154083  10.5161673  39.0903833  34.2854083
  10.7461673  39.8353833  34.3674083  14.3461673  51.5943833  26.2804083
  14.6361673  51.8513833  25.4994083  15.0411673  51.6903833  26.7994083
  14.4921673  51.6463833  26.2414083   9.3691673  43.4543833  34.3674083
   9.4421673  43.5583833  35.2304083   8.7351673  44.0123833  34.1464083
   9.2861673  43.5523833  34.4624083  11.6371673  43.7733833  32.7324083
  11.9561673  44.5593833  32.9354083  11.2671673  43.5033833  33.4754083
  11.6301673  43.8493833  32.8724083  10.9511673  50.1973833  18.2624083
  11.2851673  49.3913833  18.2974083  10.1961673  50.1253833  18.6924083
  10.8891673  50.0673833  18.3314083  11.4331673  42.0313833  23.9214083
  10.6881673  41.7083833  24.2394083  11.4351673  42.8573833  24.2014083
  11.3231673  42.1053833  24.0094083  14.3351673  44.3153833  35.4674083
  14.2831673  43.9743833  34.6664083  15.0721673  44.7823833  35.4454083
  14.4361673  44.3343833  35.3454083  13.8731673  47.9913833  31.6734083
  14.5011673  47.4423833  31.4174083  13.8121673  48.5563833  31.0114083
  13.9571673  47.9943833  31.5374083   8.3251673  48.0723833  17.6654083
   9.0091673  47.5583833  17.4964083   7.9081673  48.1183833  16.9004083
   8.3641673  48.0033833  17.5274083   3.0071673  49.2223833  28.9694083
   2.7091673  49.8143833  29.5364083   3.0621673  49.6643833  28.2204083
   2.9711673  49.3753833  28.9424083  10.3451673  38.3613833  31.3824083
  11.0891673  38.8133833  31.3194083   9.7791673  38.8313833  30.9134083
  10.3721673  38.4983833  31.3044083   5.5231673  45.6453833  28.4604083
   5.9991673  46.0193833  29.0884083   4.7001673  45.7793833  28.7194083
   5.4721673  45.7203833  28.5914083   2.2331673  41.2483833  31.2014083
   2.3941673  40.5043833  31.6284083   2.1881673  40.9993833  30.3664083
   2.2501673  41.1013833  31.1414083   4.7871673  53.0383833  23.6884083
   5.3331673  53.7173833  23.7424083   4.4371673  53.1203833  22.8934083
   4.8161673  53.1513833  23.5784083  11.6301673  36.3413833  29.0524083
  11.3501673  37.1663833  29.0084083  12.3461673  36.3943833  29.5484083
  11.6951673  36.4713833  29.1194083   3.9851673  37.0563833  31.0814083
   4.6901673  37.3763833  30.6794083   4.2261673  36.2493833  31.3084083
   4.1241673  36.9843833  31.0554083   2.9701673  51.2663833  27.0774083
   2.3461673  51.8483833  26.8954083   3.2181673  50.9803833  26.2914083
   2.9141673  51.3103833  26.9344083   7.2791673  47.9003833  34.0664083
   8.0361673  48.1863833  33.7404083   6.7321673  47.9523833  33.3884083
   7.3101673  47.9503833  33.9174083  11.1881673  50.4503833  32.5704083
  11.5341673  50.7203833  33.3244083  11.4821673  51.0323833  31.9904083
  11.2831673  50.5763833  32.5964083  13.0511673  42.5963833  17.9094083
  13.4291673  43.2733833  17.5094083  12.2091673  42.8203833  17.9404083
  12.9821673  42.7293833  17.8544083   4.5641673  46.0423833  16.9924083
   3.7591673  45.8653833  16.7074083   4.5311673  46.8933833  17.1844083
   4.4401673  46.1413833  16.9794083   8.5101673  41.2113833  32.7344083
   7.8621673  41.6813833  33.0824083   9.0751673  41.1223833  33.3934083
   8.4981673  41.2673833  32.8834083   8.1981673  42.7483833  29.0324083
   8.5001673  43.1683833  29.7354083   8.2341673  41.9083833  29.2644083
   8.2481673  42.6863833  29.1704083   5.6231673  52.9153833  32.9574083
   6.1011673  52.3153833  32.5414083   5.2721673  52.4723833  33.6224083
   5.6421673  52.7613833  32.9944083  10.7461673  42.1953833  21.2844083
  10.9531673  41.9943833  22.1084083  11.5021673  42.4633833  20.9424083
  10.8881673  42.2053833  21.3554083   4.0411673  37.0943833  27.1894083
   3.2151673  36.9453833  27.4264083   4.0011673  37.1293833  26.3184083
   3.9131673  37.0773833  27.0954083  11.7681673  38.2783833  22.7584083
  11.0541673  37.8073833  22.9294083  11.6061673  38.6193833  21.9724083
  11.6391673  38.2593833  22.6674083  12.2111673  46.2223833  21.1384083
  12.6871673  45.4933833  21.0904083  11.3901673  45.9363833  21.0624083
  12.1601673  46.0723833  21.1194083   5.6821673  48.1343833  31.9774083
   4.8871673  48.0703833  32.3284083   5.7531673  48.9813833  31.7824083
   5.5751673  48.2493833  32.0004083   8.4271673  47.3893833  23.4934083
   8.5031673  47.7303833  24.2924083   8.5961673  46.5423833  23.6144083
   8.4631673  47.3143833  23.6294083   5.9491673  46.6633833  23.0584083
   5.6511673  46.3483833  23.8154083   6.6441673  47.1363833  23.2934083
   6.0081673  46.6863833  23.2054083   6.1711673  50.7813833  31.0854083
   6.8581673  50.6673833  31.6104083   6.3051673  51.5723833  30.7414083
   6.2921673  50.8813833  31.1124083  14.3471673  43.3903833  32.8964083
  13.4921673  43.2683833  33.0224083  14.5001673  42.9953833  32.1334083
  14.2431673  43.3133833  32.8024083   8.8601673  44.0553833  31.4724083
   8.6051673  43.3363833  31.8944083   9.6811673  44.1713833  31.7424083
   8.9441673  43.9663833  31.5744083   6.7941673  45.2453833  34.6594083
   7.1171673  45.9313833  34.2274083   6.0901673  45.5683833  35.0614083
   6.7371673  45.3943833  34.6544083   9.8781673  53.6193833  25.5884083
   9.4271673  54.2623833  25.9674083  10.5861673  53.5403833  26.0934083
   9.9161673  53.7023833  25.7194083   6.5791673  48.7093833  28.5184083
   5.8851673  49.1113833  28.8614083   7.2561673  49.1423833  28.8574083
   6.5761673  48.8323833  28.6194083  11.9561673  51.3023833  35.0984083
  12.7321673  50.9123833  35.1814083  11.4871673  50.9663833  35.7534083
  12.0011673  51.1953833  35.2074083  12.9811673  43.3353833  20.5804083
  13.0841673  43.2773833  19.7164083  13.7221673  43.0033833  20.8984083
  13.1061673  43.2783833  20.4994083   6.9011673  50.3003833  21.6874083
   6.6961673  51.1333833  21.5284083   6.1261673  49.9183833  21.8094083
   6.7561673  50.3673833  21.6824083  12.0831673  43.4813833  29.9364083
  12.0811673  42.6183833  30.0604083  12.1501673  43.8053833  30.7434083
  12.0931673  43.4013833  30.0734083   7.9621673  38.2813833  33.7184083
   8.0541673  38.9933833  34.2124083   7.3251673  37.8363833  34.1154083
   7.8811673  38.3203833  33.8504083   6.9561673  38.4713833  24.5724083
   6.2561673  38.9893833  24.5164083   6.9941673  38.0913833  23.7884083
   6.8581673  38.4923833  24.4484083   2.2631673  50.5623833  18.0964083
   2.7041673  50.6423833  18.8444083   1.4581673  50.3463833  18.3544083
   2.2091673  50.5423833  18.2454083  10.5541673  38.9873833  27.3724083
  11.4091673  39.0863833  27.5174083  10.1851673  39.5403833  27.9374083
  10.6261673  39.0843833  27.4774083  10.8581673  44.2673833  25.8634083
  11.5241673  44.8083833  26.0234083  10.5131673  44.5783833  25.1244083
  10.9051673  44.3933833  25.7784083  11.1711673  52.3333833  21.6704083
  10.9971673  51.6793833  22.2204083  11.8841673  52.0623833  21.2474083
  11.2511673  52.1963833  21.6894083   2.4111673  47.8773833  17.4404083
   1.5931673  47.6093833  17.5804083   2.3831673  48.7293833  17.6254083
   2.2861673  47.9643833  17.4884083  14.0291673  36.8253833  30.5284083
  13.9771673  36.7813833  31.3984083  14.7161673  36.3223833  30.3384083
  14.1231673  36.7453833  30.6284083   6.1141673  38.9383833  27.5734083
   5.3771673  38.4843833  27.6864083   6.6851673  38.5363833  28.0964083
   6.0891673  38.8113833  27.6674083   8.8461673  49.7863833  29.3614083
   9.0521673  50.0873833  30.1534083   8.7851673  50.5083833  28.8764083
   8.8671673  49.9373833  29.4064083   8.3801673  54.0003833  33.6074083
   7.6271673  53.9823833  33.1664083   8.5481673  54.8523833  33.6914083
   8.2941673  54.1233833  33.5544083   3.6171673  43.2673833  32.7774083
   3.2951673  42.6913833  32.2074083   3.2581673  44.0223833  32.5314083
   3.5171673  43.2933833  32.6574083   4.4131673  36.5193833  17.4044083
   4.4911673  36.7663833  16.5714083   3.6701673  36.8963833  17.6624083
   4.3151673  36.6113833  17.3194083  13.6581673  48.4253833  28.8194083
  13.6261673  47.5633833  28.6844083  12.9651673  48.7273833  28.3854083
  13.5511673  48.3423833  28.7354083   2.0521673  53.6233833  33.0254083
   2.0931673  53.7493833  33.8884083   2.7031673  53.0633833  32.8694083
   2.1541673  53.5593833  33.1304083  11.7631673  51.6853833  27.6164083
  12.2901673  51.6023833  26.9254083  11.3721673  50.9073833  27.6704083
  11.7831673  51.5583833  27.5224083   8.2771673  37.1293833  26.8244083
   8.9471673  37.6733833  26.9514083   7.7741673  37.5533833  26.2514083
   8.3021673  37.2723833  26.7584083   7.6361673  42.9373833  24.3174083
   8.1871673  42.3303833  24.6174083   7.2111673  43.2003833  25.0324083
   7.6551673  42.8863833  24.4664083   9.6061673  44.7683833  20.8794083
   9.6741673  43.9183833  21.0604083   8.7831673  44.8543833  20.6014083
   9.4941673  44.6553833  20.8654083   3.5251673  45.6593833  19.8174083
   3.6251673  45.7983833  18.9624083   4.3431673  45.5993833  20.1134083
   3.6601673  45.6703833  19.7344083  12.6851673  53.7233833  17.2974083
  13.3221673  53.5893833  17.8784083  12.3441673  52.9293833  17.1804083
  12.7291673  53.5863833  17.3654083  12.8801673  46.1413833  34.0304083
  13.5141673  45.9713833  34.6044083  13.2971673  46.5443833  33.3784083
  13.0351673  46.1763833  34.0194083   8.7601673  49.9883833  19.6194083
   8.5091673  49.8603833  20.4454083   8.4431673  49.2933833  19.1984083
   8.6761673  49.8673833  19.6794083  13.5051673  40.7053833  34.7684083
  13.3091673  41.3493833  35.3234083  12.7831673  40.2153833  34.7604083
  13.3701673  40.7283833  34.8494083  13.4041673  41.6463833  27.7394083
  12.5711673  41.8963833  27.6674083  13.3481673  40.8063833  27.9684083
  13.2731673  41.5593833  27.7624083   2.6641673  38.6343833  32.9334083
   2.8981673  38.0583833  32.3204083   1.8221673  38.4533833  33.0744083
   2.5741673  38.5223833  32.8634083  10.2911673  46.2523833  35.3854083
  11.1621673  46.2163833  35.3494083  10.0721673  46.6723833  34.6534083
  10.3881673  46.3083833  35.2724083   5.6461673  48.1963833  19.0494083
   6.3631673  47.8493833  18.6934083   5.6121673  48.9963833  18.7014083
   5.7471673  48.2633833  18.9454083   7.0551673  36.8373833   3.2881673
   6.8101673  37.3253833   2.6081673   7.9181673  36.7643833   3.1881673
   7.1461673  36.8983833   3.1731673   6.8641673  43.7533833   7.9591673
   6.3401673  44.3493833   8.3221673   7.2611673  43.3853833   8.6431673
   6.8451673  43.7873833   8.1141673   9.5351673  44.8203833   4.6351673
   9.6151673  44.8243833   3.7661673   8.9511673  44.1883833   4.7841673
   9.4601673  44.7273833   4.5291673   3.5241673  37.9243833   2.4431673
   3.4541673  38.6013833   1.8971673   4.2651673  37.5363833   2.1941673
   3.6231673  37.9673833   2.3251673   3.2471673  48.1533833  14.7371673
   3.0111673  48.1503833  15.5771673   2.4991673  48.0053833  14.3131673
   3.1011673  48.1303833  14.7981673   2.6271673  40.7593833   9.2191673
   3.3051673  40.7773833   8.6701673   2.5821673  39.9233833   9.4641673
   2.7201673  40.6383833   9.1741673   3.2291673  51.3453833  12.0001673
   3.3671673  52.1053833  11.5931673   4.0201673  50.9803833  12.0271673
   3.3661673  51.4043833  11.9441673   4.3241673  49.2303833   6.5051673
   4.6721673  48.4313833   6.5351673   4.9891673  49.7343833   6.2501673
   4.4741673  49.1863833   6.4721673   4.3811673  48.6793833   2.7161673
   4.7121673  48.0353833   3.2021673   4.6211673  48.4683833   1.9051673
   4.4651673  48.5533833   2.6681673   6.3491673  42.8103833  14.0551673
   5.5011673  42.7113833  13.8771673   6.3781673  43.5553833  14.5091673
   6.2281673  42.9063833  14.0961673  10.9071673  35.7703833  13.1691673
  10.7491673  36.5393833  12.7871673  10.1351673  35.5503833  13.5131673
  10.7691673  35.8513833  13.1641673   3.6961673  37.4853833   5.3841673
   3.7691673  38.3453833   5.5131673   3.6581673  37.4103833   4.5161673
   3.7011673  37.6013833   5.2751673   2.3251673  50.4643833   2.2651673
   1.7461673  50.1893833   2.8571673   2.9491673  49.8553833   2.2901673
   2.3321673  50.3343833   2.3561673   6.6361673  53.1443833   1.7771673
   6.8501673  53.6713833   2.4391673   7.4031673  52.9703833   1.3981673
   6.7811673  53.1963833   1.8191673   2.9101673  39.8603833  16.6741673
   3.0271673  39.4063833  15.9381673   3.1981673  40.6583833  16.4711673
   2.9701673  39.9113833  16.5351673  13.7631673  40.3843833   3.9781673
  13.4171673  41.0623833   4.4041673  13.1271673  39.7863833   3.9941673
  13.6181673  40.3963833   4.0431673   9.0751673  53.1543833  10.0821673
   9.8191673  53.6103833  10.0721673   8.9541673  52.9403833   9.2451673
   9.1671673  53.1903833   9.9571673   2.0791673  52.6293833   5.5121673
   2.9231673  52.7333833   5.3171673   1.7821673  53.4473833   5.5801673
   2.1601673  52.7653833   5.4931673   5.2921673  37.1003833  14.8261673
   5.4701673  36.2913833  14.5511673   5.1491673  37.5413833  14.0871673
   5.2971673  37.0463833  14.6761673   5.8861673  42.0263833   3.5991673
   6.1731673  41.7943833   2.8091673   6.6181673  42.1053833   4.0681673
   6.0361673  42.0033833   3.5521673  13.4381673  38.7073833   9.3471673
  14.1951673  38.7793833   8.9191673  13.5011673  37.9343833   9.7461673
  13.5591673  38.6043833   9.3421673   8.3291673  50.3393833  13.7861673
   8.2951673  50.7213833  14.5701673   9.1831673  50.2973833  13.6151673
   8.4501673  50.3893833  13.8771673   6.7811673  53.5033833  11.2841673
   7.5491673  53.4233833  10.8781673   6.1981673  53.3823833  10.6461673
   6.8081673  53.4733833  11.1301673  13.0581673  54.1063833   4.1851673
  12.6031673  54.8233833   4.3861673  12.4441673  53.5353833   3.9431673
  12.9001673  54.1283833   4.1791673   4.8301673  40.1163833   5.3171673
   4.9041673  40.6843833   4.6591673   4.9511673  40.6083833   6.0271673
   4.8581673  40.2733833   5.3251673  10.0551673  49.9513833   3.7291673
  10.7561673  49.4693833   3.9181673   9.3951673  49.3823833   3.7741673
  10.0611673  49.7963833   3.7631673   2.3941673  46.3723833   7.6901673
   2.5661673  46.1623833   8.5191673   1.7391673  45.8383833   7.4741673
   2.3231673  46.2623833   7.7811673   8.6221673  40.2863833  11.2051673
   8.5271673  40.6053833  12.0111673   8.0291673  39.6473833  11.1671673
   8.5201673  40.2383833  11.3191673   3.1441673  46.3103833  10.2801673
   3.1971673  47.1573833  10.4821673   2.8591673  45.9403833  11.0171673
   3.1101673  46.3803833  10.4181673   9.3211673  47.0053833   9.4101673
   8.8071673  46.5933833   9.9811673   9.1951673  47.8493833   9.5911673
   9.2271673  47.0693833   9.5211673   9.8781673  36.2303833   4.0411673
   9.9271673  35.9123833   4.8521673  10.2011673  35.5863833   3.5481673
   9.9331673  36.0883833   4.0881673  12.3421673  40.4663833  12.3491673
  13.1141673  40.2413833  12.6861673  11.8671673  40.6833833  13.0491673
  12.3861673  40.4653833  12.5021673  14.8081673  51.9533833  13.7911673
  14.1261673  52.2633833  13.3441673  14.4391673  51.4953833  14.4361673
  14.6521673  51.9313833  13.8201673   2.0781673  47.1833833   3.1031673
   2.7911673  47.6783833   3.1931673   2.3001673  46.6163833   2.4771673
   2.2161673  47.1723833   3.0241673   3.8811673  42.5363833  16.5191673
   3.3971673  43.1133833  16.9611673   3.8531673  42.8313833  15.6981673
   3.8051673  42.6653833  16.4631673  14.9791673  43.2203833  11.1311673
  15.1941673  42.4203833  10.8551673  14.1291673  43.2803833  10.9421673
  14.8851673  43.1113833  11.0621673   6.6011673  50.8863833   5.4301673
   6.0781673  51.5203833   5.1371673   6.9111673  50.5223833   4.7011673
   6.5691673  50.9263833   5.2791673   9.1121673  40.6883833   5.9271673
   9.4561673  40.8403833   6.7141673   8.6591673  39.9503833   6.0401673
   9.0961673  40.6013833   6.0601673  12.6421673  52.3353833  11.8811673
  11.9711673  52.8493833  12.0991673  12.7051673  52.4353833  11.0171673
  12.5521673  52.4263833  11.7861673  10.4331673  42.0203833   8.4811673
   9.7711673  42.3483833   8.9441673  10.6201673  42.6543833   7.9121673
  10.3631673  42.1623833   8.4651673   4.6381673  53.0843833   9.4771673
   4.3611673  52.4433833   8.9541673   4.4301673  53.8103833   9.0391673
   4.5671673  53.0973833   9.3351673   7.0781673  37.9263833  11.9101673
   7.2271673  37.1013833  11.6671673   7.4571673  37.9813833  12.6941673
   7.1561673  37.8123833  11.9901673   8.6261673  39.9893833   1.9921673
   9.1161673  40.7063833   1.9151673   7.8361673  40.2503833   1.7291673
   8.5821673  40.1333833   1.9421673   9.9401673  47.8673833  13.9021673
  10.4241673  48.5853833  14.0001673  10.3341673  47.4403833  13.2511673
  10.0701673  47.9103833  13.8201673   4.2361673  50.7123833  15.0791673
   4.5901673  50.5343833  15.8561673   3.8001673  49.9833833  14.8801673
   4.2241673  50.5783833  15.1651673   5.2081673  41.4593833   7.7171673
   5.6881673  42.1583833   7.9251673   5.5811673  40.8123833   8.1681673
   5.3341673  41.4673833   7.8141673  12.3691673  48.4983833   3.9721673
  12.7251673  48.1483833   4.6871673  12.3611673  47.8373833   3.4021673
  12.4211673  48.3483833   3.9931673   8.4141673  51.5643833   7.8161673
   7.8111673  51.2683833   7.2591673   8.9591673  52.0163833   7.3071673
   8.4051673  51.5873833   7.6581673   8.4271673  48.4153833   7.2161673
   7.6301673  48.6393833   7.4901673   8.6851673  47.8213833   7.8011673
   8.3471673  48.3603833   7.3431673  11.6871673  46.4133833  12.0621673
  11.7421673  46.5383833  11.2001673  12.4401673  46.7333833  12.3641673
  11.8061673  46.4783833  11.9791673   7.8781673  51.7623833  16.3391673
   8.0421673  52.0453833  17.1481673   8.1411673  52.4233833  15.8341673
   7.9411673  51.9023833  16.3841673  12.7191673  36.7113833  15.0491673
  12.0821673  36.3113833  14.6071673  12.7451673  36.2803833  15.8071673
  12.6291673  36.5893833  15.0951673   7.4181673  46.2193833  11.6621673
   7.2631673  46.8293833  12.2661673   7.9521673  45.6613833  12.0681673
   7.4741673  46.2273833  11.8111673   5.8021673  44.6193833   2.3201673
   5.8611673  45.2693833   2.8991673   5.6131673  43.9233833   2.8111673
   5.7831673  44.6123833   2.4781673  11.0281673  48.9483833   8.1891673
  10.5491673  49.2463833   7.5231673  10.6721673  48.1723833   8.3671673
  10.9051673  48.8773833   8.1171673   5.0251673  46.6663833   6.7511673
   4.1781673  46.4723833   6.8321673   5.3491673  46.5013833   7.5441673
   4.9471673  46.6133833   6.8801673   2.1031673  41.5303833   5.8021673
   2.9491673  41.3403833   5.9001673   1.7331673  40.7533833   5.6641673
   2.1731673  41.3873833   5.7961673  11.9591673  45.8903833   9.3081673
  11.9521673  45.1143833   9.7061673  11.1181673  46.1243833   9.3011673
  11.8341673  45.8103833   9.3661673  13.2151673  45.9613833   6.7451673
  12.9291673  46.3623833   7.4651673  14.0751673  45.8993833   6.8721673
  13.3001673  46.0113833   6.8701673  10.8771673  39.8853833  15.2851673
  10.3521673  40.3443833  15.8091673  10.5161673  39.0903833  15.2791673
  10.7461673  39.8353833  15.3611673  14.3461673  51.5943833   7.2741673
  14.6361673  51.8513833   6.4931673  15.0411673  51.6903833   7.7931673
  14.4921673  51.6463833   7.2351673   9.3691673  43.4543833  15.3611673
   9.4421673  43.5583833  16.2241673   8.7351673  44.0123833  15.1401673
   9.2861673  43.5523833  15.4561673  11.6371673  43.7733833  13.7261673
  11.9561673  44.5593833  13.9291673  11.2671673  43.5033833  14.4691673
  11.6301673  43.8493833  13.8661673  11.4331673  42.0313833   4.9151673
  10.6881673  41.7083833   5.2331673  11.4351673  42.8573833   5.1951673
  11.3231673  42.1053833   5.0031673  14.3351673  44.3153833  16.4611673
  14.2831673  43.9743833  15.6601673  15.0721673  44.7823833  16.4391673
  14.4361673  44.3343833  16.3391673  13.8731673  47.9913833  12.6671673
  14.5011673  47.4423833  12.4111673  13.8121673  48.5563833  12.0051673
  13.9571673  47.9943833  12.5311673   3.0071673  49.2223833   9.9631673
   2.7091673  49.8143833  10.5301673   3.0621673  49.6643833   9.2141673
   2.9711673  49.3753833   9.9361673  10.3451673  38.3613833  12.3761673
  11.0891673  38.8133833  12.3131673   9.7791673  38.8313833  11.9071673
  10.3721673  38.4983833  12.2981673   5.5231673  45.6453833   9.4541673
   5.9991673  46.0193833  10.0821673   4.7001673  45.7793833   9.7131673
   5.4721673  45.7203833   9.5851673   2.2331673  41.2483833  12.1951673
   2.3941673  40.5043833  12.6221673   2.1881673  40.9993833  11.3601673
   2.2501673  41.1013833  12.1351673   4.7871673  53.0383833   4.6821673
   5.3331673  53.7173833   4.7361673   4.4371673  53.1203833   3.8871673
   4.8161673  53.1513833   4.5721673  11.6301673  36.3413833  10.0461673
  11.3501673  37.1663833  10.0021673  12.3461673  36.3943833  10.5421673
  11.6951673  36.4713833  10.1131673   3.9851673  37.0563833  12.0751673
   4.6901673  37.3763833  11.6731673   4.2261673  36.2493833  12.3021673
   4.1241673  36.9843833  12.0491673   2.9701673  51.2663833   8.0711673
   2.3461673  51.8483833   7.8891673   3.2181673  50.9803833   7.2851673
   2.9141673  51.3103833   7.9281673   7.2791673  47.9003833  15.0601673
   8.0361673  48.1863833  14.7341673   6.7321673  47.9523833  14.3821673
   7.3101673  47.9503833  14.9111673  11.1881673  50.4503833  13.5641673
  11.5341673  50.7203833  14.3181673  11.4821673  51.0323833  12.9841673
  11.2831673  50.5763833  13.5901673   8.5101673  41.2113833  13.7281673
   7.8621673  41.6813833  14.0761673   9.0751673  41.1223833  14.3871673
   8.4981673  41.2673833  13.8771673   8.1981673  42.7483833  10.0261673
   8.5001673  43.1683833  10.7291673   8.2341673  41.9083833  10.2581673
   8.2481673  42.6863833  10.1641673   5.6231673  52.9153833  13.9511673
   6.1011673  52.3153833  13.5351673   5.2721673  52.4723833  14.6161673
   5.6421673  52.7613833  13.9881673  10.7461673  42.1953833   2.2781673
  10.9531673  41.9943833   3.1021673  11.5021673  42.4633833   1.9361673
  10.8881673  42.2053833   2.3491673   4.0411673  37.0943833   8.1831673
   3.2151673  36.9453833   8.4201673   4.0011673  37.1293833   7.3121673
   3.9131673  37.0773833   8.0891673  11.7681673  38.2783833   3.7521673
  11.0541673  37.8073833   3.9231673  11.6061673  38.6193833   2.9661673
  11.6391673  38.2593833   3.6611673  12.2111673  46.2223833   2.1321673
  12.6871673  45.4933833   2.0841673  11.3901673  45.9363833   2.0561673
  12.1601673  46.0723833   2.1131673   5.6821673  48.1343833  12.9711673
   4.8871673  48.0703833  13.3221673   5.7531673  48.9813833  12.7761673
   5.5751673  48.2493833  12.9941673   8.4271673  47.3893833   4.4871673
   8.5031673  47.7303833   5.2861673   8.5961673  46.5423833   4.6081673
   8.4631673  47.3143833   4.6231673   5.9491673  46.6633833   4.0521673
   5.6511673  46.3483833   4.8091673   6.6441673  47.1363833   4.2871673
   6.0081673  46.6863833   4.1991673   6.1711673  50.7813833  12.0791673
   6.8581673  50.6673833  12.6041673   6.3051673  51.5723833  11.7351673
   6.2921673  50.8813833  12.1061673  14.3471673  43.3903833  13.8901673
  13.4921673  43.2683833  14.0161673  14.5001673  42.9953833  13.1271673
  14.2431673  43.3133833  13.7961673   8.8601673  44.0553833  12.4661673
   8.6051673  43.3363833  12.8881673   9.6811673  44.1713833  12.7361673
   8.9441673  43.9663833  12.5681673   6.7941673  45.2453833  15.6531673
   7.1171673  45.9313833  15.2211673   6.0901673  45.5683833  16.0551673
   6.7371673  45.3943833  15.6481673   9.8781673  53.6193833   6.5821673
   9.4271673  54.2623833   6.9611673  10.5861673  53.5403833   7.0871673
   9.9161673  53.7023833   6.7131673   6.5791673  48.7093833   9.5121673
   5.8851673  49.1113833   9.8551673   7.2561673  49.1423833   9.8511673
   6.5761673  48.8323833   9.6131673  11.9561673  51.3023833  16.0921673
  12.7321673  50.9123833  16.1751673  11.4871673  50.9663833  16.7471673
  12.0011673  51.1953833  16.2011673   6.9011673  50.3003833   2.6811673
   6.6961673  51.1333833   2.5221673   6.1261673  49.9183833   2.8031673
   6.7561673  50.3673833   2.6761673  12.0831673  43.4813833  10.9301673
  12.0811673  42.6183833  11.0541673  12.1501673  43.8053833  11.7371673
  12.0931673  43.4013833  11.0671673   7.9621673  38.2813833  14.7121673
   8.0541673  38.9933833  15.2061673   7.3251673  37.8363833  15.1091673
   7.8811673  38.3203833  14.8441673   6.9561673  38.4713833   5.5661673
   6.2561673  38.9893833   5.5101673   6.9941673  38.0913833   4.7821673
   6.8581673  38.4923833   5.4421673  10.5541673  38.9873833   8.3661673
  11.4091673  39.0863833   8.5111673  10.1851673  39.5403833   8.9311673
  10.6261673  39.0843833   8.4711673  10.8581673  44.2673833   6.8571673
  11.5241673  44.8083833   7.0171673  10.5131673  44.5783833   6.1181673
  10.9051673  44.3933833   6.7721673  11.1711673  52.3333833   2.6641673
  10.9971673  51.6793833   3.2141673  11.8841673  52.0623833   2.2411673
  11.2511673  52.1963833   2.6831673  14.0291673  36.8253833  11.5221673
  13.9771673  36.7813833  12.3921673  14.7161673  36.3223833  11.3321673
  14.1231673  36.7453833  11.6221673   6.1141673  38.9383833   8.5671673
   5.3771673  38.4843833   8.6801673   6.6851673  38.5363833   9.0901673
   6.0891673  38.8113833   8.6611673   8.8461673  49.7863833  10.3551673
   9.0521673  50.0873833  11.1471673   8.7851673  50.5083833   9.8701673
   8.8671673  49.9373833  10.4001673   8.3801673  54.0003833  14.6011673
   7.6271673  53.9823833  14.1601673   8.5481673  54.8523833  14.6851673
   8.2941673  54.1233833  14.5481673   3.6171673  43.2673833  13.7711673
   3.2951673  42.6913833  13.2011673   3.2581673  44.0223833  13.5251673
   3.5171673  43.2933833  13.6511673  13.6581673  48.4253833   9.8131673
  13.6261673  47.5633833   9.6781673  12.9651673  48.7273833   9.3791673
  13.5511673  48.3423833   9.7291673   2.0521673  53.6233833  14.0191673
   2.0931673  53.7493833  14.8821673   2.7031673  53.0633833  13.8631673
   2.1541673  53.5593833  14.1241673  11.7631673  51.6853833   8.6101673
  12.2901673  51.6023833   7.9191673  11.3721673  50.9073833   8.6641673
  11.7831673  51.5583833   8.5161673   8.2771673  37.1293833   7.8181673
   8.9471673  37.6733833   7.9451673   7.7741673  37.5533833   7.2451673
   8.3021673  37.2723833   7.7521673   7.6361673  42.9373833   5.3111673
   8.1871673  42.3303833   5.6111673   7.2111673  43.2003833   6.0261673
   7.6551673  42.8863833   5.4601673   9.6061673  44.7683833   1.8731673
   9.6741673  43.9183833   2.0541673   8.7831673  44.8543833   1.5951673
   9.4941673  44.6553833   1.8591673  12.8801673  46.1413833  15.0241673
  13.5141673  45.9713833  15.5981673  13.2971673  46.5443833  14.3721673
  13.0351673  46.1763833  15.0131673  13.5051673  40.7053833  15.7621673
  13.3091673  41.3493833  16.3171673  12.7831673  40.2153833  15.7541673
  13.3701673  40.7283833  15.8431673  13.4041673  41.6463833   8.7331673
  12.5711673  41.8963833   8.6611673  13.3481673  40.8063833   8.9621673
  13.2731673  41.5593833   8.7561673   2.6641673  38.6343833  13.9271673
   2.8981673  38.0583833  13.3141673   1.8221673  38.4533833  14.0681673
   2.5741673  38.5223833  13.8571673  10.2911673  46.2523833  16.3791673
  11.1621673  46.2163833  16.3431673  10.0721673  46.6723833  15.6471673
  10.3881673  46.3083833  16.2661673   7.0551673  18.3592753  79.3131313
   6.8101673  18.8472753  78.6331313   7.9181673  18.2862753  79.2131313
   7.1461673  18.4202753  79.1981313   6.8641673  25.2752753  83.9841313
   6.3401673  25.8712753  84.3471313   7.2611673  24.9072753  84.6681313
   6.8451673  25.3092753  84.1391313  13.0081673  32.7162753  76.9551313
  13.7091673  32.1972753  76.9511313  12.4211673  32.2712753  76.4861313
  13.0251673  32.5732753  76.8851313   9.5351673  26.3422753  80.6601313
   9.6151673  26.3462753  79.7911313   8.9511673  25.7102753  80.8091313
   9.4601673  26.2492753  80.5541313   3.5241673  19.4462753  78.4681313
   3.4541673  20.1232753  77.9221313   4.2651673  19.0582753  78.2191313
   3.6231673  19.4892753  78.3501313   2.6271673  22.2812753  85.2441313
   3.3051673  22.2992753  84.6951313   2.5821673  21.4452753  85.4891313
   2.7201673  22.1602753  85.1991313   3.2291673  32.8672753  88.0251313
   3.3671673  33.6272753  87.6181313   4.0201673  32.5022753  88.0521313
   3.3661673  32.9262753  87.9691313   4.3241673  30.7522753  82.5301313
   4.6721673  29.9532753  82.5601313   4.9891673  31.2562753  82.2751313
   4.4741673  30.7082753  82.4971313   4.3811673  30.2012753  78.7411313
   4.7121673  29.5572753  79.2271313   4.6211673  29.9902753  77.9301313
   4.4651673  30.0752753  78.6931313   3.6961673  19.0072753  81.4091313
   3.7691673  19.8672753  81.5381313   3.6581673  18.9322753  80.5411313
   3.7011673  19.1232753  81.3001313   8.3691673  21.9332753  73.7081313
   7.9191673  22.6142753  74.0151313   8.4831673  21.4292753  74.4111313
   8.3201673  21.9592753  73.8571313   2.3251673  31.9862753  78.2901313
   1.7461673  31.7112753  78.8821313   2.9491673  31.3772753  78.3151313
   2.3321673  31.8562753  78.3811313   8.4681673  34.2742753  75.8121313
   9.1951673  34.7462753  75.9141313   8.6971673  33.4802753  76.0921313
   8.6101673  34.2272753  75.8691313   6.6361673  34.6662753  77.8021313
   6.8501673  35.1932753  78.4641313   7.4031673  34.4922753  77.4231313
   6.7811673  34.7182753  77.8441313  13.7631673  21.9062753  80.0031313
  13.4171673  22.5842753  80.4291313  13.1271673  21.3082753  80.0191313
  13.6181673  21.9182753  80.0681313   9.0751673  34.6762753  86.1071313
   9.8191673  35.1322753  86.0971313   8.9541673  34.4622753  85.2701313
   9.1671673  34.7122753  85.9821313   2.0791673  34.1512753  81.5371313
   2.9231673  34.2552753  81.3421313   1.7821673  34.9692753  81.6051313
   2.1601673  34.2872753  81.5181313   5.8861673  23.5482753  79.6241313
   6.1731673  23.3162753  78.8341313   6.6181673  23.6272753  80.0931313
   6.0361673  23.5252753  79.5771313   6.6081673  23.8872753  74.7451313
   6.8891673  24.6752753  74.9941313   5.8321673  24.0522753  74.3821313
   6.5351673  24.0282753  74.7281313  10.6491673  35.8612753  76.2121313
  11.3141673  35.7132753  75.6671313  11.0091673  35.7782753  77.0021313
  10.8011673  35.8272753  76.2481313  13.4381673  20.2292753  85.3721313
  14.1951673  20.3012753  84.9441313  13.5011673  19.4562753  85.7711313
  13.5591673  20.1262753  85.3671313   5.4671673  32.0582753  74.5611313
   5.2861673  32.6032753  75.2181313   6.2331673  32.3482753  74.2601313
   5.5531673  32.1822753  74.6141313   8.9741673  19.9542753  75.6151313
   9.5141673  19.2722753  75.6911313   9.0361673  20.3522753  76.3891313
   9.0631673  19.9122753  75.7411313   6.2321673  22.3302753  76.9291313
   5.7241673  21.6682753  76.6751313   6.2841673  22.8342753  76.2191313
   6.1651673  22.3072753  76.7871313   6.7811673  35.0252753  87.3091313
   7.5491673  34.9452753  86.9031313   6.1981673  34.9042753  86.6711313
   6.8081673  34.9952753  87.1551313   6.2321673  19.2712753  76.8201313
   5.7771673  18.8692753  76.1941313   7.0051673  19.4262753  76.4451313
   6.2791673  19.2352753  76.6721313  13.0581673  35.6282753  80.2101313
  12.6031673  36.3452753  80.4111313  12.4441673  35.0572753  79.9681313
  12.9001673  35.6502753  80.2041313   4.8301673  21.6382753  81.3421313
   4.9041673  22.2062753  80.6841313   4.9511673  22.1302753  82.0521313
   4.8581673  21.7952753  81.3501313  10.0551673  31.4732753  79.7541313
  10.7561673  30.9912753  79.9431313   9.3951673  30.9042753  79.7991313
  10.0611673  31.3182753  79.7881313   2.3941673  27.8942753  83.7151313
   2.5661673  27.6842753  84.5441313   1.7391673  27.3602753  83.4991313
   2.3231673  27.7842753  83.8061313   8.6221673  21.8082753  87.2301313
   8.5271673  22.1272753  88.0361313   8.0291673  21.1692753  87.1921313
   8.5201673  21.7602753  87.3441313   3.1441673  27.8322753  86.3051313
   3.1971673  28.6792753  86.5071313   2.8591673  27.4622753  87.0421313
   3.1101673  27.9022753  86.4431313   9.3211673  28.5272753  85.4351313
   8.8071673  28.1152753  86.0061313   9.1951673  29.3712753  85.6161313
   9.2271673  28.5912753  85.5461313   9.8781673  17.7522753  80.0661313
   9.9271673  17.4342753  80.8771313  10.2011673  17.1082753  79.5731313
   9.9331673  17.6102753  80.1131313  12.5741673  28.9662753  75.5621313
  12.6931673  28.6792753  76.3771313  13.3811673  28.9872753  75.2321313
  12.7101673  28.9272753  75.6341313  10.4691673  25.5032753  75.1471313
  10.2491673  26.2342753  74.7251313  10.0211673  25.5542753  75.8941313
  10.3701673  25.6182753  75.1951313   2.0781673  28.7052753  79.1281313
   2.7911673  29.2002753  79.2181313   2.3001673  28.1382753  78.5021313
   2.2161673  28.6942753  79.0491313  14.6561673  20.3642753  74.6001313
  13.9941673  19.7962753  74.6231313  14.4631673  20.8762753  73.9201313
  14.5301673  20.3562753  74.5031313  14.9791673  24.7422753  87.1561313
  15.1941673  23.9422753  86.8801313  14.1291673  24.8022753  86.9671313
  14.8851673  24.6332753  87.0871313  12.6581673  19.9222753  76.8791313
  13.4041673  19.5152753  77.0781313  12.9211673  20.6372753  76.4541313
  12.8071673  19.9682753  76.8461313   6.6011673  32.4082753  81.4551313
   6.0781673  33.0422753  81.1621313   6.9111673  32.0442753  80.7261313
   6.5691673  32.4482753  81.3041313   9.1121673  22.2102753  81.9521313
   9.4561673  22.3622753  82.7391313   8.6591673  21.4722753  82.0651313
   9.0961673  22.1232753  82.0851313   3.5881673  21.4302753  76.4091313
   3.5861673  21.3132753  75.5441313   3.4071673  22.2782753  76.5011313
   3.5611673  21.5382753  76.2951313  12.6421673  33.8572753  87.9061313
  11.9711673  34.3712753  88.1241313  12.7051673  33.9572753  87.0421313
  12.5521673  33.9482753  87.8111313  10.4331673  23.5422753  84.5061313
   9.7711673  23.8702753  84.9691313  10.6201673  24.1762753  83.9371313
  10.3631673  23.6842753  84.4901313   4.6381673  34.6062753  85.5021313
   4.3611673  33.9652753  84.9791313   4.4301673  35.3322753  85.0641313
   4.5671673  34.6192753  85.3601313   7.0781673  19.4482753  87.9351313
   7.2271673  18.6232753  87.6921313   7.4571673  19.5032753  88.7191313
   7.1561673  19.3342753  88.0151313   8.6261673  21.5112753  78.0171313
   9.1161673  22.2282753  77.9401313   7.8361673  21.7722753  77.7541313
   8.5821673  21.6552753  77.9671313   5.2081673  22.9812753  83.7421313
   5.6881673  23.6802753  83.9501313   5.5811673  22.3342753  84.1931313
   5.3341673  22.9892753  83.8391313   7.3971673  26.1502753  76.0161313
   7.3891673  26.8722753  75.5261313   6.7581673  26.2852753  76.5931313
   7.3021673  26.2772753  76.0291313  12.3691673  30.0202753  79.9971313
  12.7251673  29.6702753  80.7121313  12.3611673  29.3592753  79.4271313
  12.4211673  29.8702753  80.0181313   8.4141673  33.0862753  83.8411313
   7.8111673  32.7902753  83.2841313   8.9591673  33.5382753  83.3321313
   8.4051673  33.1092753  83.6831313   8.4271673  29.9372753  83.2411313
   7.6301673  30.1612753  83.5151313   8.6851673  29.3432753  83.8261313
   8.3471673  29.8822753  83.3681313   2.3191673  34.7492753  77.6891313
   2.1721673  33.9732753  78.0601313   3.0081673  34.6022753  77.1741313
   2.3991673  34.6122753  77.6681313   4.6111673  34.2652753  76.0911313
   5.2331673  34.4282753  76.6811313   4.6471673  34.9562753  75.5591313
   4.7081673  34.3912753  76.1001313  11.6871673  27.9352753  88.0871313
  11.7421673  28.0602753  87.2251313  12.4401673  28.2552753  88.3891313
  11.8061673  28.0002753  88.0041313   7.4181673  27.7412753  87.6871313
   7.2631673  28.3512753  88.2911313   7.9521673  27.1832753  88.0931313
   7.4741673  27.7492753  87.8361313   5.8021673  26.1412753  78.3451313
   5.8611673  26.7912753  78.9241313   5.6131673  25.4452753  78.8361313
   5.7831673  26.1342753  78.5031313  11.0281673  30.4702753  84.2141313
  10.5491673  30.7682753  83.5481313  10.6721673  29.6942753  84.3921313
  10.9051673  30.3992753  84.1421313   5.0251673  28.1882753  82.7761313
   4.1781673  27.9942753  82.8571313   5.3491673  28.0232753  83.5691313
   4.9471673  28.1352753  82.9051313   1.7771673  34.9182753  73.6621313
   2.2161673  34.2212753  73.9501313   1.9841673  35.5422753  74.2351313
   1.8731673  34.9072753  73.7891313   2.1031673  23.0522753  81.8271313
   2.9491673  22.8622753  81.9251313   1.7331673  22.2752753  81.6891313
   2.1731673  22.9092753  81.8211313  14.7201673  34.6362753  76.1541313
  15.4141673  34.1692753  75.9061313  14.1811673  34.0382753  76.4911313
  14.7431673  34.4782753  76.1671313  11.9591673  27.4122753  85.3331313
  11.9521673  26.6362753  85.7311313  11.1181673  27.6462753  85.3261313
  11.8341673  27.3322753  85.3911313  13.2151673  27.4832753  82.7701313
  12.9291673  27.8842753  83.4901313  14.0751673  27.4212753  82.8971313
  13.3001673  27.5332753  82.8951313   2.9041673  24.2852753  76.6781313
   3.1761673  25.1112753  76.7451313   2.0411673  24.3602753  76.5821313
   2.8171673  24.4182753  76.6731313  14.3461673  33.1162753  83.2991313
  14.6361673  33.3732753  82.5181313  15.0411673  33.2122753  83.8181313
  14.4921673  33.1682753  83.2601313  10.9511673  31.7192753  75.2811313
  11.2851673  30.9132753  75.3161313  10.1961673  31.6472753  75.7111313
  10.8891673  31.5892753  75.3501313  11.4331673  23.5532753  80.9401313
  10.6881673  23.2302753  81.2581313  11.4351673  24.3792753  81.2201313
  11.3231673  23.6272753  81.0281313  13.8731673  29.5132753  88.6921313
  14.5011673  28.9642753  88.4361313  13.8121673  30.0782753  88.0301313
  13.9571673  29.5162753  88.5561313   8.3251673  29.5942753  74.6841313
   9.0091673  29.0802753  74.5151313   7.9081673  29.6402753  73.9191313
   8.3641673  29.5252753  74.5461313   3.0071673  30.7442753  85.9881313
   2.7091673  31.3362753  86.5551313   3.0621673  31.1862753  85.2391313
   2.9711673  30.8972753  85.9611313  10.3451673  19.8832753  88.4011313
  11.0891673  20.3352753  88.3381313   9.7791673  20.3532753  87.9321313
  10.3721673  20.0202753  88.3231313   5.5231673  27.1672753  85.4791313
   5.9991673  27.5412753  86.1071313   4.7001673  27.3012753  85.7381313
   5.4721673  27.2422753  85.6101313   2.2331673  22.7702753  88.2201313
   2.3941673  22.0262753  88.6471313   2.1881673  22.5212753  87.3851313
   2.2501673  22.6232753  88.1601313   4.7871673  34.5602753  80.7071313
   5.3331673  35.2392753  80.7611313   4.4371673  34.6422753  79.9121313
   4.8161673  34.6732753  80.5971313  11.6301673  17.8632753  86.0711313
  11.3501673  18.6882753  86.0271313  12.3461673  17.9162753  86.5671313
  11.6951673  17.9932753  86.1381313   3.9851673  18.5782753  88.1001313
   4.6901673  18.8982753  87.6981313   4.2261673  17.7712753  88.3271313
   4.1241673  18.5062753  88.0741313   2.9701673  32.7882753  84.0961313
   2.3461673  33.3702753  83.9141313   3.2181673  32.5022753  83.3101313
   2.9141673  32.8322753  83.9531313  13.0511673  24.1182753  74.9281313
  13.4291673  24.7952753  74.5281313  12.2091673  24.3422753  74.9591313
  12.9821673  24.2512753  74.8731313   4.5641673  27.5642753  74.0111313
   3.7591673  27.3872753  73.7261313   4.5311673  28.4152753  74.2031313
   4.4401673  27.6632753  73.9981313   8.1981673  24.2702753  86.0511313
   8.5001673  24.6902753  86.7541313   8.2341673  23.4302753  86.2831313
   8.2481673  24.2082753  86.1891313  10.7461673  23.7172753  78.3031313
  10.9531673  23.5162753  79.1271313  11.5021673  23.9852753  77.9611313
  10.8881673  23.7272753  78.3741313   4.0411673  18.6162753  84.2081313
   3.2151673  18.4672753  84.4451313   4.0011673  18.6512753  83.3371313
   3.9131673  18.5992753  84.1141313  11.7681673  19.8002753  79.7771313
  11.0541673  19.3292753  79.9481313  11.6061673  20.1412753  78.9911313
  11.6391673  19.7812753  79.6861313  12.2111673  27.7442753  78.1571313
  12.6871673  27.0152753  78.1091313  11.3901673  27.4582753  78.0811313
  12.1601673  27.5942753  78.1381313   8.4271673  28.9112753  80.5121313
   8.5031673  29.2522753  81.3111313   8.5961673  28.0642753  80.6331313
   8.4631673  28.8362753  80.6481313   5.9491673  28.1852753  80.0771313
   5.6511673  27.8702753  80.8341313   6.6441673  28.6582753  80.3121313
   6.0081673  28.2082753  80.2241313   6.1711673  32.3032753  88.1041313
   6.8581673  32.1892753  88.6291313   6.3051673  33.0942753  87.7601313
   6.2921673  32.4032753  88.1311313   8.8601673  25.5772753  88.4911313
   8.6051673  24.8582753  88.9131313   9.6811673  25.6932753  88.7611313
   8.9441673  25.4882753  88.5931313   9.8781673  35.1412753  82.6071313
   9.4271673  35.7842753  82.9861313  10.5861673  35.0622753  83.1121313
   9.9161673  35.2242753  82.7381313   6.5791673  30.2312753  85.5371313
   5.8851673  30.6332753  85.8801313   7.2561673  30.6642753  85.8761313
   6.5761673  30.3542753  85.6381313  12.9811673  24.8572753  77.5991313
  13.0841673  24.7992753  76.7351313  13.7221673  24.5252753  77.9171313
  13.1061673  24.8002753  77.5181313   6.9011673  31.8222753  78.7061313
   6.6961673  32.6552753  78.5471313   6.1261673  31.4402753  78.8281313
   6.7561673  31.8892753  78.7011313  12.0831673  25.0032753  86.9551313
  12.0811673  24.1402753  87.0791313  12.1501673  25.3272753  87.7621313
  12.0931673  24.9232753  87.0921313   6.9561673  19.9932753  81.5911313
   6.2561673  20.5112753  81.5351313   6.9941673  19.6132753  80.8071313
   6.8581673  20.0142753  81.4671313   2.2631673  32.0842753  75.1151313
   2.7041673  32.1642753  75.8631313   1.4581673  31.8682753  75.3731313
   2.2091673  32.0642753  75.2641313  10.5541673  20.5092753  84.3911313
  11.4091673  20.6082753  84.5361313  10.1851673  21.0622753  84.9561313
  10.6261673  20.6062753  84.4961313  10.8581673  25.7892753  82.8821313
  11.5241673  26.3302753  83.0421313  10.5131673  26.1002753  82.1431313
  10.9051673  25.9152753  82.7971313  11.1711673  33.8552753  78.6891313
  10.9971673  33.2012753  79.2391313  11.8841673  33.5842753  78.2661313
  11.2511673  33.7182753  78.7081313   2.4111673  29.3992753  74.4591313
   1.5931673  29.1312753  74.5991313   2.3831673  30.2512753  74.6441313
   2.2861673  29.4862753  74.5071313  14.0291673  18.3472753  87.5471313
  13.9771673  18.3032753  88.4171313  14.7161673  17.8442753  87.3571313
  14.1231673  18.2672753  87.6471313   6.1141673  20.4602753  84.5921313
   5.3771673  20.0062753  84.7051313   6.6851673  20.0582753  85.1151313
   6.0891673  20.3332753  84.6861313   8.8461673  31.3082753  86.3801313
   9.0521673  31.6092753  87.1721313   8.7851673  32.0302753  85.8951313
   8.8671673  31.4592753  86.4251313   4.4131673  18.0412753  74.4231313
   4.4911673  18.2882753  73.5901313   3.6701673  18.4182753  74.6811313
   4.3151673  18.1332753  74.3381313  13.6581673  29.9472753  85.8381313
  13.6261673  29.0852753  85.7031313  12.9651673  30.2492753  85.4041313
  13.5511673  29.8642753  85.7541313  11.7631673  33.2072753  84.6351313
  12.2901673  33.1242753  83.9441313  11.3721673  32.4292753  84.6891313
  11.7831673  33.0802753  84.5411313   8.2771673  18.6512753  83.8431313
   8.9471673  19.1952753  83.9701313   7.7741673  19.0752753  83.2701313
   8.3021673  18.7942753  83.7771313   7.6361673  24.4592753  81.3361313
   8.1871673  23.8522753  81.6361313   7.2111673  24.7222753  82.0511313
   7.6551673  24.4082753  81.4851313   9.6061673  26.2902753  77.8981313
   9.6741673  25.4402753  78.0791313   8.7831673  26.3762753  77.6201313
   9.4941673  26.1772753  77.8841313   3.5251673  27.1812753  76.8361313
   3.6251673  27.3202753  75.9811313   4.3431673  27.1212753  77.1321313
   3.6601673  27.1922753  76.7531313  12.6851673  35.2452753  74.3161313
  13.3221673  35.1112753  74.8971313  12.3441673  34.4512753  74.1991313
  12.7291673  35.1082753  74.3841313   8.7601673  31.5102753  76.6381313
   8.5091673  31.3822753  77.4641313   8.4431673  30.8152753  76.2171313
   8.6761673  31.3892753  76.6981313  13.4041673  23.1682753  84.7581313
  12.5711673  23.4182753  84.6861313  13.3481673  22.3282753  84.9871313
  13.2731673  23.0812753  84.7811313   5.6461673  29.7182753  76.0681313
   6.3631673  29.3712753  75.7121313   5.6121673  30.5182753  75.7201313
   5.7471673  29.7852753  75.9641313   7.0551673  18.3592753  60.3068903
   6.8101673  18.8472753  59.6268903   7.9181673  18.2862753  60.2068903
   7.1461673  18.4202753  60.1918903   6.8641673  25.2752753  64.9778903
   6.3401673  25.8712753  65.3408903   7.2611673  24.9072753  65.6618903
   6.8451673  25.3092753  65.1328903  13.0081673  32.7162753  57.9488903
  13.7091673  32.1972753  57.9448903  12.4211673  32.2712753  57.4798903
  13.0251673  32.5732753  57.8788903   9.5351673  26.3422753  61.6538903
   9.6151673  26.3462753  60.7848903   8.9511673  25.7102753  61.8028903
   9.4601673  26.2492753  61.5478903   3.5241673  19.4462753  59.4618903
   3.4541673  20.1232753  58.9158903   4.2651673  19.0582753  59.2128903
   3.6231673  19.4892753  59.3438903   3.2471673  29.6752753  71.7558903
   3.0111673  29.6722753  72.5958903   2.4991673  29.5272753  71.3318903
   3.1011673  29.6522753  71.8168903   2.6271673  22.2812753  66.2378903
   3.3051673  22.2992753  65.6888903   2.5821673  21.4452753  66.4828903
   2.7201673  22.1602753  66.1928903   3.2291673  32.8672753  69.0188903
   3.3671673  33.6272753  68.6118903   4.0201673  32.5022753  69.0458903
   3.3661673  32.9262753  68.9628903   4.3241673  30.7522753  63.5238903
   4.6721673  29.9532753  63.5538903   4.9891673  31.2562753  63.2688903
   4.4741673  30.7082753  63.4908903   4.3811673  30.2012753  59.7348903
   4.7121673  29.5572753  60.2208903   4.6211673  29.9902753  58.9238903
   4.4651673  30.0752753  59.6868903   6.3491673  24.3322753  71.0738903
   5.5011673  24.2332753  70.8958903   6.3781673  25.0772753  71.5278903
   6.2281673  24.4282753  71.1148903  10.9071673  17.2922753  70.1878903
  10.7491673  18.0612753  69.8058903  10.1351673  17.0722753  70.5318903
  10.7691673  17.3732753  70.1828903   3.6961673  19.0072753  62.4028903
   3.7691673  19.8672753  62.5318903   3.6581673  18.9322753  61.5348903
   3.7011673  19.1232753  62.2938903   8.3691673  21.9332753  54.7018903
   7.9191673  22.6142753  55.0088903   8.4831673  21.4292753  55.4048903
   8.3201673  21.9592753  54.8508903   2.3251673  31.9862753  59.2838903
   1.7461673  31.7112753  59.8758903   2.9491673  31.3772753  59.3088903
   2.3321673  31.8562753  59.3748903   8.4681673  34.2742753  56.8058903
   9.1951673  34.7462753  56.9078903   8.6971673  33.4802753  57.0858903
   8.6101673  34.2272753  56.8628903   6.6361673  34.6662753  58.7958903
   6.8501673  35.1932753  59.4578903   7.4031673  34.4922753  58.4168903
   6.7811673  34.7182753  58.8378903   2.9101673  21.3822753  73.6928903
   3.0271673  20.9282753  72.9568903   3.1981673  22.1802753  73.4898903
   2.9701673  21.4332753  73.5538903  13.7631673  21.9062753  60.9968903
  13.4171673  22.5842753  61.4228903  13.1271673  21.3082753  61.0128903
  13.6181673  21.9182753  61.0618903   9.0751673  34.6762753  67.1008903
   9.8191673  35.1322753  67.0908903   8.9541673  34.4622753  66.2638903
   9.1671673  34.7122753  66.9758903   2.0791673  34.1512753  62.5308903
   2.9231673  34.2552753  62.3358903   1.7821673  34.9692753  62.5988903
   2.1601673  34.2872753  62.5118903   5.2921673  18.6222753  71.8448903
   5.4701673  17.8132753  71.5698903   5.1491673  19.0632753  71.1058903
   5.2971673  18.5682753  71.6948903   5.8861673  23.5482753  60.6178903
   6.1731673  23.3162753  59.8278903   6.6181673  23.6272753  61.0868903
   6.0361673  23.5252753  60.5708903   6.6081673  23.8872753  55.7388903
   6.8891673  24.6752753  55.9878903   5.8321673  24.0522753  55.3758903
   6.5351673  24.0282753  55.7218903  10.6491673  35.8612753  57.2058903
  11.3141673  35.7132753  56.6608903  11.0091673  35.7782753  57.9958903
  10.8011673  35.8272753  57.2418903  13.4381673  20.2292753  66.3658903
  14.1951673  20.3012753  65.9378903  13.5011673  19.4562753  66.7648903
  13.5591673  20.1262753  66.3608903   8.3291673  31.8612753  70.8048903
   8.2951673  32.2432753  71.5888903   9.1831673  31.8192753  70.6338903
   8.4501673  31.9112753  70.8958903   5.4671673  32.0582753  55.5548903
   5.2861673  32.6032753  56.2118903   6.2331673  32.3482753  55.2538903
   5.5531673  32.1822753  55.6078903   8.9741673  19.9542753  56.6088903
   9.5141673  19.2722753  56.6848903   9.0361673  20.3522753  57.3828903
   9.0631673  19.9122753  56.7348903   6.2321673  22.3302753  57.9228903
   5.7241673  21.6682753  57.6688903   6.2841673  22.8342753  57.2128903
   6.1651673  22.3072753  57.7808903   6.7811673  35.0252753  68.3028903
   7.5491673  34.9452753  67.8968903   6.1981673  34.9042753  67.6648903
   6.8081673  34.9952753  68.1488903   6.2321673  19.2712753  57.8138903
   5.7771673  18.8692753  57.1878903   7.0051673  19.4262753  57.4388903
   6.2791673  19.2352753  57.6658903  13.0581673  35.6282753  61.2038903
  12.6031673  36.3452753  61.4048903  12.4441673  35.0572753  60.9618903
  12.9001673  35.6502753  61.1978903   4.8301673  21.6382753  62.3358903
   4.9041673  22.2062753  61.6778903   4.9511673  22.1302753  63.0458903
   4.8581673  21.7952753  62.3438903  10.0551673  31.4732753  60.7478903
  10.7561673  30.9912753  60.9368903   9.3951673  30.9042753  60.7928903
  10.0611673  31.3182753  60.7818903   2.3941673  27.8942753  64.7088903
   2.5661673  27.6842753  65.5378903   1.7391673  27.3602753  64.4928903
   2.3231673  27.7842753  64.7998903   8.6221673  21.8082753  68.2238903
   8.5271673  22.1272753  69.0298903   8.0291673  21.1692753  68.1858903
   8.5201673  21.7602753  68.3378903   3.1441673  27.8322753  67.2988903
   3.1971673  28.6792753  67.5008903   2.8591673  27.4622753  68.0358903
   3.1101673  27.9022753  67.4368903   9.3211673  28.5272753  66.4288903
   8.8071673  28.1152753  66.9998903   9.1951673  29.3712753  66.6098903
   9.2271673  28.5912753  66.5398903   9.8781673  17.7522753  61.0598903
   9.9271673  17.4342753  61.8708903  10.2011673  17.1082753  60.5668903
   9.9331673  17.6102753  61.1068903  12.3421673  21.9882753  69.3678903
  13.1141673  21.7632753  69.7048903  11.8671673  22.2052753  70.0678903
  12.3861673  21.9872753  69.5208903  12.5741673  28.9662753  56.5558903
  12.6931673  28.6792753  57.3708903  13.3811673  28.9872753  56.2258903
  12.7101673  28.9272753  56.6278903  14.8081673  33.4752753  70.8098903
  14.1261673  33.7852753  70.3628903  14.4391673  33.0172753  71.4548903
  14.6521673  33.4532753  70.8388903  10.4691673  25.5032753  56.1408903
  10.2491673  26.2342753  55.7188903  10.0211673  25.5542753  56.8878903
  10.3701673  25.6182753  56.1888903   2.0781673  28.7052753  60.1218903
   2.7911673  29.2002753  60.2118903   2.3001673  28.1382753  59.4958903
   2.2161673  28.6942753  60.0428903  14.6561673  20.3642753  55.5938903
  13.9941673  19.7962753  55.6168903  14.4631673  20.8762753  54.9138903
  14.5301673  20.3562753  55.4968903   3.8811673  24.0582753  73.5378903
   3.3971673  24.6352753  73.9798903   3.8531673  24.3532753  72.7168903
   3.8051673  24.1872753  73.4818903  14.9791673  24.7422753  68.1498903
  15.1941673  23.9422753  67.8738903  14.1291673  24.8022753  67.9608903
  14.8851673  24.6332753  68.0808903  12.6581673  19.9222753  57.8728903
  13.4041673  19.5152753  58.0718903  12.9211673  20.6372753  57.4478903
  12.8071673  19.9682753  57.8398903   6.6011673  32.4082753  62.4488903
   6.0781673  33.0422753  62.1558903   6.9111673  32.0442753  61.7198903
   6.5691673  32.4482753  62.2978903   9.1121673  22.2102753  62.9458903
   9.4561673  22.3622753  63.7328903   8.6591673  21.4722753  63.0588903
   9.0961673  22.1232753  63.0788903   3.5881673  21.4302753  57.4028903
   3.5861673  21.3132753  56.5378903   3.4071673  22.2782753  57.4948903
   3.5611673  21.5382753  57.2888903  12.6421673  33.8572753  68.8998903
  11.9711673  34.3712753  69.1178903  12.7051673  33.9572753  68.0358903
  12.5521673  33.9482753  68.8048903  10.4331673  23.5422753  65.4998903
   9.7711673  23.8702753  65.9628903  10.6201673  24.1762753  64.9308903
  10.3631673  23.6842753  65.4838903   4.6381673  34.6062753  66.4958903
   4.3611673  33.9652753  65.9728903   4.4301673  35.3322753  66.0578903
   4.5671673  34.6192753  66.3538903   7.0781673  19.4482753  68.9288903
   7.2271673  18.6232753  68.6858903   7.4571673  19.5032753  69.7128903
   7.1561673  19.3342753  69.0088903   8.6261673  21.5112753  59.0108903
   9.1161673  22.2282753  58.9338903   7.8361673  21.7722753  58.7478903
   8.5821673  21.6552753  58.9608903   9.9401673  29.3892753  70.9208903
  10.4241673  30.1072753  71.0188903  10.3341673  28.9622753  70.2698903
  10.0701673  29.4322753  70.8388903   4.2361673  32.2342753  72.0978903
   4.5901673  32.0562753  72.8748903   3.8001673  31.5052753  71.8988903
   4.2241673  32.1002753  72.1838903   5.2081673  22.9812753  64.7358903
   5.6881673  23.6802753  64.9438903   5.5811673  22.3342753  65.1868903
   5.3341673  22.9892753  64.8328903   7.3971673  26.1502753  57.0098903
   7.3891673  26.8722753  56.5198903   6.7581673  26.2852753  57.5868903
   7.3021673  26.2772753  57.0228903  12.3691673  30.0202753  60.9908903
  12.7251673  29.6702753  61.7058903  12.3611673  29.3592753  60.4208903
  12.4211673  29.8702753  61.0118903   8.4141673  33.0862753  64.8348903
   7.8111673  32.7902753  64.2778903   8.9591673  33.5382753  64.3258903
   8.4051673  33.1092753  64.6768903   8.4271673  29.9372753  64.2348903
   7.6301673  30.1612753  64.5088903   8.6851673  29.3432753  64.8198903
   8.3471673  29.8822753  64.3618903   2.3191673  34.7492753  58.6828903
   2.1721673  33.9732753  59.0538903   3.0081673  34.6022753  58.1678903
   2.3991673  34.6122753  58.6618903   4.6111673  34.2652753  57.0848903
   5.2331673  34.4282753  57.6748903   4.6471673  34.9562753  56.5528903
   4.7081673  34.3912753  57.0938903  11.6871673  27.9352753  69.0808903
  11.7421673  28.0602753  68.2188903  12.4401673  28.2552753  69.3828903
  11.8061673  28.0002753  68.9978903   7.8781673  33.2842753  73.3578903
   8.0421673  33.5672753  74.1668903   8.1411673  33.9452753  72.8528903
   7.9411673  33.4242753  73.4028903  12.7191673  18.2332753  72.0678903
  12.0821673  17.8332753  71.6258903  12.7451673  17.8022753  72.8258903
  12.6291673  18.1112753  72.1138903   7.4181673  27.7412753  68.6808903
   7.2631673  28.3512753  69.2848903   7.9521673  27.1832753  69.0868903
   7.4741673  27.7492753  68.8298903   5.8021673  26.1412753  59.3388903
   5.8611673  26.7912753  59.9178903   5.6131673  25.4452753  59.8298903
   5.7831673  26.1342753  59.4968903  11.0281673  30.4702753  65.2078903
  10.5491673  30.7682753  64.5418903  10.6721673  29.6942753  65.3858903
  10.9051673  30.3992753  65.1358903   5.0251673  28.1882753  63.7698903
   4.1781673  27.9942753  63.8508903   5.3491673  28.0232753  64.5628903
   4.9471673  28.1352753  63.8988903   1.7771673  34.9182753  54.6558903
   2.2161673  34.2212753  54.9438903   1.9841673  35.5422753  55.2288903
   1.8731673  34.9072753  54.7828903   2.1031673  23.0522753  62.8208903
   2.9491673  22.8622753  62.9188903   1.7331673  22.2752753  62.6828903
   2.1731673  22.9092753  62.8148903  14.7201673  34.6362753  57.1478903
  15.4141673  34.1692753  56.8998903  14.1811673  34.0382753  57.4848903
  14.7431673  34.4782753  57.1608903  11.9591673  27.4122753  66.3268903
  11.9521673  26.6362753  66.7248903  11.1181673  27.6462753  66.3198903
  11.8341673  27.3322753  66.3848903  13.2151673  27.4832753  63.7638903
  12.9291673  27.8842753  64.4838903  14.0751673  27.4212753  63.8908903
  13.3001673  27.5332753  63.8888903   2.9041673  24.2852753  57.6718903
   3.1761673  25.1112753  57.7388903   2.0411673  24.3602753  57.5758903
   2.8171673  24.4182753  57.6668903  10.8771673  21.4072753  72.3038903
  10.3521673  21.8662753  72.8278903  10.5161673  20.6122753  72.2978903
  10.7461673  21.3572753  72.3798903  14.3461673  33.1162753  64.2928903
  14.6361673  33.3732753  63.5118903  15.0411673  33.2122753  64.8118903
  14.4921673  33.1682753  64.2538903   9.3691673  24.9762753  72.3798903
   9.4421673  25.0802753  73.2428903   8.7351673  25.5342753  72.1588903
   9.2861673  25.0742753  72.4748903  11.6371673  25.2952753  70.7448903
  11.9561673  26.0812753  70.9478903  11.2671673  25.0252753  71.4878903
  11.6301673  25.3712753  70.8848903  10.9511673  31.7192753  56.2748903
  11.2851673  30.9132753  56.3098903  10.1961673  31.6472753  56.7048903
  10.8891673  31.5892753  56.3438903  11.4331673  23.5532753  61.9338903
  10.6881673  23.2302753  62.2518903  11.4351673  24.3792753  62.2138903
  11.3231673  23.6272753  62.0218903  14.3351673  25.8372753  73.4798903
  14.2831673  25.4962753  72.6788903  15.0721673  26.3042753  73.4578903
  14.4361673  25.8562753  73.3578903  13.8731673  29.5132753  69.6858903
  14.5011673  28.9642753  69.4298903  13.8121673  30.0782753  69.0238903
  13.9571673  29.5162753  69.5498903   8.3251673  29.5942753  55.6778903
   9.0091673  29.0802753  55.5088903   7.9081673  29.6402753  54.9128903
   8.3641673  29.5252753  55.5398903   3.0071673  30.7442753  66.9818903
   2.7091673  31.3362753  67.5488903   3.0621673  31.1862753  66.2328903
   2.9711673  30.8972753  66.9548903  10.3451673  19.8832753  69.3948903
  11.0891673  20.3352753  69.3318903   9.7791673  20.3532753  68.9258903
  10.3721673  20.0202753  69.3168903   5.5231673  27.1672753  66.4728903
   5.9991673  27.5412753  67.1008903   4.7001673  27.3012753  66.7318903
   5.4721673  27.2422753  66.6038903   2.2331673  22.7702753  69.2138903
   2.3941673  22.0262753  69.6408903   2.1881673  22.5212753  68.3788903
   2.2501673  22.6232753  69.1538903   4.7871673  34.5602753  61.7008903
   5.3331673  35.2392753  61.7548903   4.4371673  34.6422753  60.9058903
   4.8161673  34.6732753  61.5908903  11.6301673  17.8632753  67.0648903
  11.3501673  18.6882753  67.0208903  12.3461673  17.9162753  67.5608903
  11.6951673  17.9932753  67.1318903   3.9851673  18.5782753  69.0938903
   4.6901673  18.8982753  68.6918903   4.2261673  17.7712753  69.3208903
   4.1241673  18.5062753  69.0678903   2.9701673  32.7882753  65.0898903
   2.3461673  33.3702753  64.9078903   3.2181673  32.5022753  64.3038903
   2.9141673  32.8322753  64.9468903   7.2791673  29.4222753  72.0788903
   8.0361673  29.7082753  71.7528903   6.7321673  29.4742753  71.4008903
   7.3101673  29.4722753  71.9298903  11.1881673  31.9722753  70.5828903
  11.5341673  32.2422753  71.3368903  11.4821673  32.5542753  70.0028903
  11.2831673  32.0982753  70.6088903  13.0511673  24.1182753  55.9218903
  13.4291673  24.7952753  55.5218903  12.2091673  24.3422753  55.9528903
  12.9821673  24.2512753  55.8668903   4.5641673  27.5642753  55.0048903
   3.7591673  27.3872753  54.7198903   4.5311673  28.4152753  55.1968903
   4.4401673  27.6632753  54.9918903   8.5101673  22.7332753  70.7468903
   7.8621673  23.2032753  71.0948903   9.0751673  22.6442753  71.4058903
   8.4981673  22.7892753  70.8958903   8.1981673  24.2702753  67.0448903
   8.5001673  24.6902753  67.7478903   8.2341673  23.4302753  67.2768903
   8.2481673  24.2082753  67.1828903   5.6231673  34.4372753  70.9698903
   6.1011673  33.8372753  70.5538903   5.2721673  33.9942753  71.6348903
   5.6421673  34.2832753  71.0068903  10.7461673  23.7172753  59.2968903
  10.9531673  23.5162753  60.1208903  11.5021673  23.9852753  58.9548903
  10.8881673  23.7272753  59.3678903   4.0411673  18.6162753  65.2018903
   3.2151673  18.4672753  65.4388903   4.0011673  18.6512753  64.3308903
   3.9131673  18.5992753  65.1078903  11.7681673  19.8002753  60.7708903
  11.0541673  19.3292753  60.9418903  11.6061673  20.1412753  59.9848903
  11.6391673  19.7812753  60.6798903  12.2111673  27.7442753  59.1508903
  12.6871673  27.0152753  59.1028903  11.3901673  27.4582753  59.0748903
  12.1601673  27.5942753  59.1318903   5.6821673  29.6562753  69.9898903
   4.8871673  29.5922753  70.3408903   5.7531673  30.5032753  69.7948903
   5.5751673  29.7712753  70.0128903   8.4271673  28.9112753  61.5058903
   8.5031673  29.2522753  62.3048903   8.5961673  28.0642753  61.6268903
   8.4631673  28.8362753  61.6418903   5.9491673  28.1852753  61.0708903
   5.6511673  27.8702753  61.8278903   6.6441673  28.6582753  61.3058903
   6.0081673  28.2082753  61.2178903   6.1711673  32.3032753  69.0978903
   6.8581673  32.1892753  69.6228903   6.3051673  33.0942753  68.7538903
   6.2921673  32.4032753  69.1248903  14.3471673  24.9122753  70.9088903
  13.4921673  24.7902753  71.0348903  14.5001673  24.5172753  70.1458903
  14.2431673  24.8352753  70.8148903   8.8601673  25.5772753  69.4848903
   8.6051673  24.8582753  69.9068903   9.6811673  25.6932753  69.7548903
   8.9441673  25.4882753  69.5868903   6.7941673  26.7672753  72.6718903
   7.1171673  27.4532753  72.2398903   6.0901673  27.0902753  73.0738903
   6.7371673  26.9162753  72.6668903   9.8781673  35.1412753  63.6008903
   9.4271673  35.7842753  63.9798903  10.5861673  35.0622753  64.1058903
   9.9161673  35.2242753  63.7318903   6.5791673  30.2312753  66.5308903
   5.8851673  30.6332753  66.8738903   7.2561673  30.6642753  66.8698903
   6.5761673  30.3542753  66.6318903  11.9561673  32.8242753  73.1108903
  12.7321673  32.4342753  73.1938903  11.4871673  32.4882753  73.7658903
  12.0011673  32.7172753  73.2198903  12.9811673  24.8572753  58.5928903
  13.0841673  24.7992753  57.7288903  13.7221673  24.5252753  58.9108903
  13.1061673  24.8002753  58.5118903   6.9011673  31.8222753  59.6998903
   6.6961673  32.6552753  59.5408903   6.1261673  31.4402753  59.8218903
   6.7561673  31.8892753  59.6948903  12.0831673  25.0032753  67.9488903
  12.0811673  24.1402753  68.0728903  12.1501673  25.3272753  68.7558903
  12.0931673  24.9232753  68.0858903   7.9621673  19.8032753  71.7308903
   8.0541673  20.5152753  72.2248903   7.3251673  19.3582753  72.1278903
   7.8811673  19.8422753  71.8628903   6.9561673  19.9932753  62.5848903
   6.2561673  20.5112753  62.5288903   6.9941673  19.6132753  61.8008903
   6.8581673  20.0142753  62.4608903   2.2631673  32.0842753  56.1088903
   2.7041673  32.1642753  56.8568903   1.4581673  31.8682753  56.3668903
   2.2091673  32.0642753  56.2578903  10.5541673  20.5092753  65.3848903
  11.4091673  20.6082753  65.5298903  10.1851673  21.0622753  65.9498903
  10.6261673  20.6062753  65.4898903  10.8581673  25.7892753  63.8758903
  11.5241673  26.3302753  64.0358903  10.5131673  26.1002753  63.1368903
  10.9051673  25.9152753  63.7908903  11.1711673  33.8552753  59.6828903
  10.9971673  33.2012753  60.2328903  11.8841673  33.5842753  59.2598903
  11.2511673  33.7182753  59.7018903   2.4111673  29.3992753  55.4528903
   1.5931673  29.1312753  55.5928903   2.3831673  30.2512753  55.6378903
   2.2861673  29.4862753  55.5008903  14.0291673  18.3472753  68.5408903
  13.9771673  18.3032753  69.4108903  14.7161673  17.8442753  68.3508903
  14.1231673  18.2672753  68.6408903   6.1141673  20.4602753  65.5858903
   5.3771673  20.0062753  65.6988903   6.6851673  20.0582753  66.1088903
   6.0891673  20.3332753  65.6798903   8.8461673  31.3082753  67.3738903
   9.0521673  31.6092753  68.1658903   8.7851673  32.0302753  66.8888903
   8.8671673  31.4592753  67.4188903   8.3801673  35.5222753  71.6198903
   7.6271673  35.5042753  71.1788903   8.5481673  36.3742753  71.7038903
   8.2941673  35.6452753  71.5668903   3.6171673  24.7892753  70.7898903
   3.2951673  24.2132753  70.2198903   3.2581673  25.5442753  70.5438903
   3.5171673  24.8152753  70.6698903   4.4131673  18.0412753  55.4168903
   4.4911673  18.2882753  54.5838903   3.6701673  18.4182753  55.6748903
   4.3151673  18.1332753  55.3318903  13.6581673  29.9472753  66.8318903
  13.6261673  29.0852753  66.6968903  12.9651673  30.2492753  66.3978903
  13.5511673  29.8642753  66.7478903   2.0521673  35.1452753  71.0378903
   2.0931673  35.2712753  71.9008903   2.7031673  34.5852753  70.8818903
   2.1541673  35.0812753  71.1428903  11.7631673  33.2072753  65.6288903
  12.2901673  33.1242753  64.9378903  11.3721673  32.4292753  65.6828903
  11.7831673  33.0802753  65.5348903   8.2771673  18.6512753  64.8368903
   8.9471673  19.1952753  64.9638903   7.7741673  19.0752753  64.2638903
   8.3021673  18.7942753  64.7708903   7.6361673  24.4592753  62.3298903
   8.1871673  23.8522753  62.6298903   7.2111673  24.7222753  63.0448903
   7.6551673  24.4082753  62.4788903   9.6061673  26.2902753  58.8918903
   9.6741673  25.4402753  59.0728903   8.7831673  26.3762753  58.6138903
   9.4941673  26.1772753  58.8778903   3.5251673  27.1812753  57.8298903
   3.6251673  27.3202753  56.9748903   4.3431673  27.1212753  58.1258903
   3.6601673  27.1922753  57.7468903  12.6851673  35.2452753  55.3098903
  13.3221673  35.1112753  55.8908903  12.3441673  34.4512753  55.1928903
  12.7291673  35.1082753  55.3778903  12.8801673  27.6632753  72.0428903
  13.5141673  27.4932753  72.6168903  13.2971673  28.0662753  71.3908903
  13.0351673  27.6982753  72.0318903   8.7601673  31.5102753  57.6318903
   8.5091673  31.3822753  58.4578903   8.4431673  30.8152753  57.2108903
   8.6761673  31.3892753  57.6918903  13.5051673  22.2272753  72.7808903
  13.3091673  22.8712753  73.3358903  12.7831673  21.7372753  72.7728903
  13.3701673  22.2502753  72.8618903  13.4041673  23.1682753  65.7518903
  12.5711673  23.4182753  65.6798903  13.3481673  22.3282753  65.9808903
  13.2731673  23.0812753  65.7748903   2.6641673  20.1562753  70.9458903
   2.8981673  19.5802753  70.3328903   1.8221673  19.9752753  71.0868903
   2.5741673  20.0442753  70.8758903  10.2911673  27.7742753  73.3978903
  11.1621673  27.7382753  73.3618903  10.0721673  28.1942753  72.6658903
  10.3881673  27.8302753  73.2848903   5.6461673  29.7182753  57.0618903
   6.3631673  29.3712753  56.7058903   5.6121673  30.5182753  56.7138903
   5.7471673  29.7852753  56.9578903   7.0551673  18.3592753  41.3006493
   6.8101673  18.8472753  40.6206493   7.9181673  18.2862753  41.2006493
   7.1461673  18.4202753  41.1856493   6.8641673  25.2752753  45.9716493
   6.3401673  25.8712753  46.3346493   7.2611673  24.9072753  46.6556493
   6.8451673  25.3092753  46.1266493  13.0081673  32.7162753  38.9426493
  13.7091673  32.1972753  38.9386493  12.4211673  32.2712753  38.4736493
  13.0251673  32.5732753  38.8726493   9.5351673  26.3422753  42.6476493
   9.6151673  26.3462753  41.7786493   8.9511673  25.7102753  42.7966493
   9.4601673  26.2492753  42.5416493   3.5241673  19.4462753  40.4556493
   3.4541673  20.1232753  39.9096493   4.2651673  19.0582753  40.2066493
   3.6231673  19.4892753  40.3376493   3.2471673  29.6752753  52.7496493
   3.0111673  29.6722753  53.5896493   2.4991673  29.5272753  52.3256493
   3.1011673  29.6522753  52.8106493   2.6271673  22.2812753  47.2316493
   3.3051673  22.2992753  46.6826493   2.5821673  21.4452753  47.4766493
   2.7201673  22.1602753  47.1866493   3.2291673  32.8672753  50.0126493
   3.3671673  33.6272753  49.6056493   4.0201673  32.5022753  50.0396493
   3.3661673  32.9262753  49.9566493   4.3241673  30.7522753  44.5176493
   4.6721673  29.9532753  44.5476493   4.9891673  31.2562753  44.2626493
   4.4741673  30.7082753  44.4846493   4.3811673  30.2012753  40.7286493
   4.7121673  29.5572753  41.2146493   4.6211673  29.9902753  39.9176493
   4.4651673  30.0752753  40.6806493   6.3491673  24.3322753  52.0676493
   5.5011673  24.2332753  51.8896493   6.3781673  25.0772753  52.5216493
   6.2281673  24.4282753  52.1086493  10.9071673  17.2922753  51.1816493
  10.7491673  18.0612753  50.7996493  10.1351673  17.0722753  51.5256493
  10.7691673  17.3732753  51.1766493   3.6961673  19.0072753  43.3966493
   3.7691673  19.8672753  43.5256493   3.6581673  18.9322753  42.5286493
   3.7011673  19.1232753  43.2876493   8.3691673  21.9332753  35.6956493
   7.9191673  22.6142753  36.0026493   8.4831673  21.4292753  36.3986493
   8.3201673  21.9592753  35.8446493   2.3251673  31.9862753  40.2776493
   1.7461673  31.7112753  40.8696493   2.9491673  31.3772753  40.3026493
   2.3321673  31.8562753  40.3686493   8.4681673  34.2742753  37.7996493
   9.1951673  34.7462753  37.9016493   8.6971673  33.4802753  38.0796493
   8.6101673  34.2272753  37.8566493   6.6361673  34.6662753  39.7896493
   6.8501673  35.1932753  40.4516493   7.4031673  34.4922753  39.4106493
   6.7811673  34.7182753  39.8316493   2.9101673  21.3822753  54.6866493
   3.0271673  20.9282753  53.9506493   3.1981673  22.1802753  54.4836493
   2.9701673  21.4332753  54.5476493  13.7631673  21.9062753  41.9906493
  13.4171673  22.5842753  42.4166493  13.1271673  21.3082753  42.0066493
  13.6181673  21.9182753  42.0556493   9.0751673  34.6762753  48.0946493
   9.8191673  35.1322753  48.0846493   8.9541673  34.4622753  47.2576493
   9.1671673  34.7122753  47.9696493   2.0791673  34.1512753  43.5246493
   2.9231673  34.2552753  43.3296493   1.7821673  34.9692753  43.5926493
   2.1601673  34.2872753  43.5056493   5.2921673  18.6222753  52.8386493
   5.4701673  17.8132753  52.5636493   5.1491673  19.0632753  52.0996493
   5.2971673  18.5682753  52.6886493   5.8861673  23.5482753  41.6116493
   6.1731673  23.3162753  40.8216493   6.6181673  23.6272753  42.0806493
   6.0361673  23.5252753  41.5646493   6.6081673  23.8872753  36.7326493
   6.8891673  24.6752753  36.9816493   5.8321673  24.0522753  36.3696493
   6.5351673  24.0282753  36.7156493  10.6491673  35.8612753  38.1996493
  11.3141673  35.7132753  37.6546493  11.0091673  35.7782753  38.9896493
  10.8011673  35.8272753  38.2356493  13.4381673  20.2292753  47.3596493
  14.1951673  20.3012753  46.9316493  13.5011673  19.4562753  47.7586493
  13.5591673  20.1262753  47.3546493   8.3291673  31.8612753  51.7986493
   8.2951673  32.2432753  52.5826493   9.1831673  31.8192753  51.6276493
   8.4501673  31.9112753  51.8896493   5.4671673  32.0582753  36.5486493
   5.2861673  32.6032753  37.2056493   6.2331673  32.3482753  36.2476493
   5.5531673  32.1822753  36.6016493   8.9741673  19.9542753  37.6026493
   9.5141673  19.2722753  37.6786493   9.0361673  20.3522753  38.3766493
   9.0631673  19.9122753  37.7286493   6.2321673  22.3302753  38.9166493
   5.7241673  21.6682753  38.6626493   6.2841673  22.8342753  38.2066493
   6.1651673  22.3072753  38.7746493   6.7811673  35.0252753  49.2966493
   7.5491673  34.9452753  48.8906493   6.1981673  34.9042753  48.6586493
   6.8081673  34.9952753  49.1426493   6.2321673  19.2712753  38.8076493
   5.7771673  18.8692753  38.1816493   7.0051673  19.4262753  38.4326493
   6.2791673  19.2352753  38.6596493  13.0581673  35.6282753  42.1976493
  12.6031673  36.3452753  42.3986493  12.4441673  35.0572753  41.9556493
  12.9001673  35.6502753  42.1916493   4.8301673  21.6382753  43.3296493
   4.9041673  22.2062753  42.6716493   4.9511673  22.1302753  44.0396493
   4.8581673  21.7952753  43.3376493  10.0551673  31.4732753  41.7416493
  10.7561673  30.9912753  41.9306493   9.3951673  30.9042753  41.7866493
  10.0611673  31.3182753  41.7756493   2.3941673  27.8942753  45.7026493
   2.5661673  27.6842753  46.5316493   1.7391673  27.3602753  45.4866493
   2.3231673  27.7842753  45.7936493   8.6221673  21.8082753  49.2176493
   8.5271673  22.1272753  50.0236493   8.0291673  21.1692753  49.1796493
   8.5201673  21.7602753  49.3316493   3.1441673  27.8322753  48.2926493
   3.1971673  28.6792753  48.4946493   2.8591673  27.4622753  49.0296493
   3.1101673  27.9022753  48.4306493   9.3211673  28.5272753  47.4226493
   8.8071673  28.1152753  47.9936493   9.1951673  29.3712753  47.6036493
   9.2271673  28.5912753  47.5336493   9.8781673  17.7522753  42.0536493
   9.9271673  17.4342753  42.8646493  10.2011673  17.1082753  41.5606493
   9.9331673  17.6102753  42.1006493  12.3421673  21.9882753  50.3616493
  13.1141673  21.7632753  50.6986493  11.8671673  22.2052753  51.0616493
  12.3861673  21.9872753  50.5146493  12.5741673  28.9662753  37.5496493
  12.6931673  28.6792753  38.3646493  13.3811673  28.9872753  37.2196493
  12.7101673  28.9272753  37.6216493  14.8081673  33.4752753  51.8036493
  14.1261673  33.7852753  51.3566493  14.4391673  33.0172753  52.4486493
  14.6521673  33.4532753  51.8326493  10.4691673  25.5032753  37.1346493
  10.2491673  26.2342753  36.7126493  10.0211673  25.5542753  37.8816493
  10.3701673  25.6182753  37.1826493   2.0781673  28.7052753  41.1156493
   2.7911673  29.2002753  41.2056493   2.3001673  28.1382753  40.4896493
   2.2161673  28.6942753  41.0366493  14.6561673  20.3642753  36.5876493
  13.9941673  19.7962753  36.6106493  14.4631673  20.8762753  35.9076493
  14.5301673  20.3562753  36.4906493   3.8811673  24.0582753  54.5316493
   3.3971673  24.6352753  54.9736493   3.8531673  24.3532753  53.7106493
   3.8051673  24.1872753  54.4756493  14.9791673  24.7422753  49.1436493
  15.1941673  23.9422753  48.8676493  14.1291673  24.8022753  48.9546493
  14.8851673  24.6332753  49.0746493  12.6581673  19.9222753  38.8666493
  13.4041673  19.5152753  39.0656493  12.9211673  20.6372753  38.4416493
  12.8071673  19.9682753  38.8336493   6.6011673  32.4082753  43.4426493
   6.0781673  33.0422753  43.1496493   6.9111673  32.0442753  42.7136493
   6.5691673  32.4482753  43.2916493   9.1121673  22.2102753  43.9396493
   9.4561673  22.3622753  44.7266493   8.6591673  21.4722753  44.0526493
   9.0961673  22.1232753  44.0726493   3.5881673  21.4302753  38.3966493
   3.5861673  21.3132753  37.5316493   3.4071673  22.2782753  38.4886493
   3.5611673  21.5382753  38.2826493  12.6421673  33.8572753  49.8936493
  11.9711673  34.3712753  50.1116493  12.7051673  33.9572753  49.0296493
  12.5521673  33.9482753  49.7986493  10.4331673  23.5422753  46.4936493
   9.7711673  23.8702753  46.9566493  10.6201673  24.1762753  45.9246493
  10.3631673  23.6842753  46.4776493   4.6381673  34.6062753  47.4896493
   4.3611673  33.9652753  46.9666493   4.4301673  35.3322753  47.0516493
   4.5671673  34.6192753  47.3476493   7.0781673  19.4482753  49.9226493
   7.2271673  18.6232753  49.6796493   7.4571673  19.5032753  50.7066493
   7.1561673  19.3342753  50.0026493   8.6261673  21.5112753  40.0046493
   9.1161673  22.2282753  39.9276493   7.8361673  21.7722753  39.7416493
   8.5821673  21.6552753  39.9546493   9.9401673  29.3892753  51.9146493
  10.4241673  30.1072753  52.0126493  10.3341673  28.9622753  51.2636493
  10.0701673  29.4322753  51.8326493   4.2361673  32.2342753  53.0916493
   4.5901673  32.0562753  53.8686493   3.8001673  31.5052753  52.8926493
   4.2241673  32.1002753  53.1776493   5.2081673  22.9812753  45.7296493
   5.6881673  23.6802753  45.9376493   5.5811673  22.3342753  46.1806493
   5.3341673  22.9892753  45.8266493   7.3971673  26.1502753  38.0036493
   7.3891673  26.8722753  37.5136493   6.7581673  26.2852753  38.5806493
   7.3021673  26.2772753  38.0166493  12.3691673  30.0202753  41.9846493
  12.7251673  29.6702753  42.6996493  12.3611673  29.3592753  41.4146493
  12.4211673  29.8702753  42.0056493   8.4141673  33.0862753  45.8286493
   7.8111673  32.7902753  45.2716493   8.9591673  33.5382753  45.3196493
   8.4051673  33.1092753  45.6706493   8.4271673  29.9372753  45.2286493
   7.6301673  30.1612753  45.5026493   8.6851673  29.3432753  45.8136493
   8.3471673  29.8822753  45.3556493   2.3191673  34.7492753  39.6766493
   2.1721673  33.9732753  40.0476493   3.0081673  34.6022753  39.1616493
   2.3991673  34.6122753  39.6556493   4.6111673  34.2652753  38.0786493
   5.2331673  34.4282753  38.6686493   4.6471673  34.9562753  37.5466493
   4.7081673  34.3912753  38.0876493  11.6871673  27.9352753  50.0746493
  11.7421673  28.0602753  49.2126493  12.4401673  28.2552753  50.3766493
  11.8061673  28.0002753  49.9916493   7.8781673  33.2842753  54.3516493
   8.0421673  33.5672753  55.1606493   8.1411673  33.9452753  53.8466493
   7.9411673  33.4242753  54.3966493  12.7191673  18.2332753  53.0616493
  12.0821673  17.8332753  52.6196493  12.7451673  17.8022753  53.8196493
  12.6291673  18.1112753  53.1076493   7.4181673  27.7412753  49.6746493
   7.2631673  28.3512753  50.2786493   7.9521673  27.1832753  50.0806493
   7.4741673  27.7492753  49.8236493   5.8021673  26.1412753  40.3326493
   5.8611673  26.7912753  40.9116493   5.6131673  25.4452753  40.8236493
   5.7831673  26.1342753  40.4906493  11.0281673  30.4702753  46.2016493
  10.5491673  30.7682753  45.5356493  10.6721673  29.6942753  46.3796493
  10.9051673  30.3992753  46.1296493   5.0251673  28.1882753  44.7636493
   4.1781673  27.9942753  44.8446493   5.3491673  28.0232753  45.5566493
   4.9471673  28.1352753  44.8926493   1.7771673  34.9182753  35.6496493
   2.2161673  34.2212753  35.9376493   1.9841673  35.5422753  36.2226493
   1.8731673  34.9072753  35.7766493   2.1031673  23.0522753  43.8146493
   2.9491673  22.8622753  43.9126493   1.7331673  22.2752753  43.6766493
   2.1731673  22.9092753  43.8086493  14.7201673  34.6362753  38.1416493
  15.4141673  34.1692753  37.8936493  14.1811673  34.0382753  38.4786493
  14.7431673  34.4782753  38.1546493  11.9591673  27.4122753  47.3206493
  11.9521673  26.6362753  47.7186493  11.1181673  27.6462753  47.3136493
  11.8341673  27.3322753  47.3786493  13.2151673  27.4832753  44.7576493
  12.9291673  27.8842753  45.4776493  14.0751673  27.4212753  44.8846493
  13.3001673  27.5332753  44.8826493   2.9041673  24.2852753  38.6656493
   3.1761673  25.1112753  38.7326493   2.0411673  24.3602753  38.5696493
   2.8171673  24.4182753  38.6606493  10.8771673  21.4072753  53.2976493
  10.3521673  21.8662753  53.8216493  10.5161673  20.6122753  53.2916493
  10.7461673  21.3572753  53.3736493  14.3461673  33.1162753  45.2866493
  14.6361673  33.3732753  44.5056493  15.0411673  33.2122753  45.8056493
  14.4921673  33.1682753  45.2476493   9.3691673  24.9762753  53.3736493
   9.4421673  25.0802753  54.2366493   8.7351673  25.5342753  53.1526493
   9.2861673  25.0742753  53.4686493  11.6371673  25.2952753  51.7386493
  11.9561673  26.0812753  51.9416493  11.2671673  25.0252753  52.4816493
  11.6301673  25.3712753  51.8786493  10.9511673  31.7192753  37.2686493
  11.2851673  30.9132753  37.3036493  10.1961673  31.6472753  37.6986493
  10.8891673  31.5892753  37.3376493  11.4331673  23.5532753  42.9276493
  10.6881673  23.2302753  43.2456493  11.4351673  24.3792753  43.2076493
  11.3231673  23.6272753  43.0156493  14.3351673  25.8372753  54.4736493
  14.2831673  25.4962753  53.6726493  15.0721673  26.3042753  54.4516493
  14.4361673  25.8562753  54.3516493  13.8731673  29.5132753  50.6796493
  14.5011673  28.9642753  50.4236493  13.8121673  30.0782753  50.0176493
  13.9571673  29.5162753  50.5436493   8.3251673  29.5942753  36.6716493
   9.0091673  29.0802753  36.5026493   7.9081673  29.6402753  35.9066493
   8.3641673  29.5252753  36.5336493   3.0071673  30.7442753  47.9756493
   2.7091673  31.3362753  48.5426493   3.0621673  31.1862753  47.2266493
   2.9711673  30.8972753  47.9486493  10.3451673  19.8832753  50.3886493
  11.0891673  20.3352753  50.3256493   9.7791673  20.3532753  49.9196493
  10.3721673  20.0202753  50.3106493   5.5231673  27.1672753  47.4666493
   5.9991673  27.5412753  48.0946493   4.7001673  27.3012753  47.7256493
   5.4721673  27.2422753  47.5976493   2.2331673  22.7702753  50.2076493
   2.3941673  22.0262753  50.6346493   2.1881673  22.5212753  49.3726493
   2.2501673  22.6232753  50.1476493   4.7871673  34.5602753  42.6946493
   5.3331673  35.2392753  42.7486493   4.4371673  34.6422753  41.8996493
   4.8161673  34.6732753  42.5846493  11.6301673  17.8632753  48.0586493
  11.3501673  18.6882753  48.0146493  12.3461673  17.9162753  48.5546493
  11.6951673  17.9932753  48.1256493   3.9851673  18.5782753  50.0876493
   4.6901673  18.8982753  49.6856493   4.2261673  17.7712753  50.3146493
   4.1241673  18.5062753  50.0616493   2.9701673  32.7882753  46.0836493
   2.3461673  33.3702753  45.9016493   3.2181673  32.5022753  45.2976493
   2.9141673  32.8322753  45.9406493   7.2791673  29.4222753  53.0726493
   8.0361673  29.7082753  52.7466493   6.7321673  29.4742753  52.3946493
   7.3101673  29.4722753  52.9236493  11.1881673  31.9722753  51.5766493
  11.5341673  32.2422753  52.3306493  11.4821673  32.5542753  50.9966493
  11.2831673  32.0982753  51.6026493  13.0511673  24.1182753  36.9156493
  13.4291673  24.7952753  36.5156493  12.2091673  24.3422753  36.9466493
  12.9821673  24.2512753  36.8606493   4.5641673  27.5642753  35.9986493
   3.7591673  27.3872753  35.7136493   4.5311673  28.4152753  36.1906493
   4.4401673  27.6632753  35.9856493   8.5101673  22.7332753  51.7406493
   7.8621673  23.2032753  52.0886493   9.0751673  22.6442753  52.3996493
   8.4981673  22.7892753  51.8896493   8.1981673  24.2702753  48.0386493
   8.5001673  24.6902753  48.7416493   8.2341673  23.4302753  48.2706493
   8.2481673  24.2082753  48.1766493   5.6231673  34.4372753  51.9636493
   6.1011673  33.8372753  51.5476493   5.2721673  33.9942753  52.6286493
   5.6421673  34.2832753  52.0006493  10.7461673  23.7172753  40.2906493
  10.9531673  23.5162753  41.1146493  11.5021673  23.9852753  39.9486493
  10.8881673  23.7272753  40.3616493   4.0411673  18.6162753  46.1956493
   3.2151673  18.4672753  46.4326493   4.0011673  18.6512753  45.3246493
   3.9131673  18.5992753  46.1016493  11.7681673  19.8002753  41.7646493
  11.0541673  19.3292753  41.9356493  11.6061673  20.1412753  40.9786493
  11.6391673  19.7812753  41.6736493  12.2111673  27.7442753  40.1446493
  12.6871673  27.0152753  40.0966493  11.3901673  27.4582753  40.0686493
  12.1601673  27.5942753  40.1256493   5.6821673  29.6562753  50.9836493
   4.8871673  29.5922753  51.3346493   5.7531673  30.5032753  50.7886493
   5.5751673  29.7712753  51.0066493   8.4271673  28.9112753  42.4996493
   8.5031673  29.2522753  43.2986493   8.5961673  28.0642753  42.6206493
   8.4631673  28.8362753  42.6356493   5.9491673  28.1852753  42.0646493
   5.6511673  27.8702753  42.8216493   6.6441673  28.6582753  42.2996493
   6.0081673  28.2082753  42.2116493   6.1711673  32.3032753  50.0916493
   6.8581673  32.1892753  50.6166493   6.3051673  33.0942753  49.7476493
   6.2921673  32.4032753  50.1186493  14.3471673  24.9122753  51.9026493
  13.4921673  24.7902753  52.0286493  14.5001673  24.5172753  51.1396493
  14.2431673  24.8352753  51.8086493   8.8601673  25.5772753  50.4786493
   8.6051673  24.8582753  50.9006493   9.6811673  25.6932753  50.7486493
   8.9441673  25.4882753  50.5806493   6.7941673  26.7672753  53.6656493
   7.1171673  27.4532753  53.2336493   6.0901673  27.0902753  54.0676493
   6.7371673  26.9162753  53.6606493   9.8781673  35.1412753  44.5946493
   9.4271673  35.7842753  44.9736493  10.5861673  35.0622753  45.0996493
   9.9161673  35.2242753  44.7256493   6.5791673  30.2312753  47.5246493
   5.8851673  30.6332753  47.8676493   7.2561673  30.6642753  47.8636493
   6.5761673  30.3542753  47.6256493  11.9561673  32.8242753  54.1046493
  12.7321673  32.4342753  54.1876493  11.4871673  32.4882753  54.7596493
  12.0011673  32.7172753  54.2136493  12.9811673  24.8572753  39.5866493
  13.0841673  24.7992753  38.7226493  13.7221673  24.5252753  39.9046493
  13.1061673  24.8002753  39.5056493   6.9011673  31.8222753  40.6936493
   6.6961673  32.6552753  40.5346493   6.1261673  31.4402753  40.8156493
   6.7561673  31.8892753  40.6886493  12.0831673  25.0032753  48.9426493
  12.0811673  24.1402753  49.0666493  12.1501673  25.3272753  49.7496493
  12.0931673  24.9232753  49.0796493   7.9621673  19.8032753  52.7246493
   8.0541673  20.5152753  53.2186493   7.3251673  19.3582753  53.1216493
   7.8811673  19.8422753  52.8566493   6.9561673  19.9932753  43.5786493
   6.2561673  20.5112753  43.5226493   6.9941673  19.6132753  42.7946493
   6.8581673  20.0142753  43.4546493   2.2631673  32.0842753  37.1026493
   2.7041673  32.1642753  37.8506493   1.4581673  31.8682753  37.3606493
   2.2091673  32.0642753  37.2516493  10.5541673  20.5092753  46.3786493
  11.4091673  20.6082753  46.5236493  10.1851673  21.0622753  46.9436493
  10.6261673  20.6062753  46.4836493  10.8581673  25.7892753  44.8696493
  11.5241673  26.3302753  45.0296493  10.5131673  26.1002753  44.1306493
  10.9051673  25.9152753  44.7846493  11.1711673  33.8552753  40.6766493
  10.9971673  33.2012753  41.2266493  11.8841673  33.5842753  40.2536493
  11.2511673  33.7182753  40.6956493   2.4111673  29.3992753  36.4466493
   1.5931673  29.1312753  36.5866493   2.3831673  30.2512753  36.6316493
   2.2861673  29.4862753  36.4946493  14.0291673  18.3472753  49.5346493
  13.9771673  18.3032753  50.4046493  14.7161673  17.8442753  49.3446493
  14.1231673  18.2672753  49.6346493   6.1141673  20.4602753  46.5796493
   5.3771673  20.0062753  46.6926493   6.6851673  20.0582753  47.1026493
   6.0891673  20.3332753  46.6736493   8.8461673  31.3082753  48.3676493
   9.0521673  31.6092753  49.1596493   8.7851673  32.0302753  47.8826493
   8.8671673  31.4592753  48.4126493   8.3801673  35.5222753  52.6136493
   7.6271673  35.5042753  52.1726493   8.5481673  36.3742753  52.6976493
   8.2941673  35.6452753  52.5606493   3.6171673  24.7892753  51.7836493
   3.2951673  24.2132753  51.2136493   3.2581673  25.5442753  51.5376493
   3.5171673  24.8152753  51.6636493   4.4131673  18.0412753  36.4106493
   4.4911673  18.2882753  35.5776493   3.6701673  18.4182753  36.6686493
   4.3151673  18.1332753  36.3256493  13.6581673  29.9472753  47.8256493
  13.6261673  29.0852753  47.6906493  12.9651673  30.2492753  47.3916493
  13.5511673  29.8642753  47.7416493   2.0521673  35.1452753  52.0316493
   2.0931673  35.2712753  52.8946493   2.7031673  34.5852753  51.8756493
   2.1541673  35.0812753  52.1366493  11.7631673  33.2072753  46.6226493
  12.2901673  33.1242753  45.9316493  11.3721673  32.4292753  46.6766493
  11.7831673  33.0802753  46.5286493   8.2771673  18.6512753  45.8306493
   8.9471673  19.1952753  45.9576493   7.7741673  19.0752753  45.2576493
   8.3021673  18.7942753  45.7646493   7.6361673  24.4592753  43.3236493
   8.1871673  23.8522753  43.6236493   7.2111673  24.7222753  44.0386493
   7.6551673  24.4082753  43.4726493   9.6061673  26.2902753  39.8856493
   9.6741673  25.4402753  40.0666493   8.7831673  26.3762753  39.6076493
   9.4941673  26.1772753  39.8716493   3.5251673  27.1812753  38.8236493
   3.6251673  27.3202753  37.9686493   4.3431673  27.1212753  39.1196493
   3.6601673  27.1922753  38.7406493  12.6851673  35.2452753  36.3036493
  13.3221673  35.1112753  36.8846493  12.3441673  34.4512753  36.1866493
  12.7291673  35.1082753  36.3716493  12.8801673  27.6632753  53.0366493
  13.5141673  27.4932753  53.6106493  13.2971673  28.0662753  52.3846493
  13.0351673  27.6982753  53.0256493   8.7601673  31.5102753  38.6256493
   8.5091673  31.3822753  39.4516493   8.4431673  30.8152753  38.2046493
   8.6761673  31.3892753  38.6856493  13.5051673  22.2272753  53.7746493
  13.3091673  22.8712753  54.3296493  12.7831673  21.7372753  53.7666493
  13.3701673  22.2502753  53.8556493  13.4041673  23.1682753  46.7456493
  12.5711673  23.4182753  46.6736493  13.3481673  22.3282753  46.9746493
  13.2731673  23.0812753  46.7686493   2.6641673  20.1562753  51.9396493
   2.8981673  19.5802753  51.3266493   1.8221673  19.9752753  52.0806493
   2.5741673  20.0442753  51.8696493  10.2911673  27.7742753  54.3916493
  11.1621673  27.7382753  54.3556493  10.0721673  28.1942753  53.6596493
  10.3881673  27.8302753  54.2786493   5.6461673  29.7182753  38.0556493
   6.3631673  29.3712753  37.6996493   5.6121673  30.5182753  37.7076493
   5.7471673  29.7852753  37.9516493   7.0551673  18.3592753  22.2944083
   6.8101673  18.8472753  21.6144083   7.9181673  18.2862753  22.1944083
   7.1461673  18.4202753  22.1794083   6.8641673  25.2752753  26.9654083
   6.3401673  25.8712753  27.3284083   7.2611673  24.9072753  27.6494083
   6.8451673  25.3092753  27.1204083  13.0081673  32.7162753  19.9364083
  13.7091673  32.1972753  19.9324083  12.4211673  32.2712753  19.4674083
  13.0251673  32.5732753  19.8664083   9.5351673  26.3422753  23.6414083
   9.6151673  26.3462753  22.7724083   8.9511673  25.7102753  23.7904083
   9.4601673  26.2492753  23.5354083   3.5241673  19.4462753  21.4494083
   3.4541673  20.1232753  20.9034083   4.2651673  19.0582753  21.2004083
   3.6231673  19.4892753  21.3314083   3.2471673  29.6752753  33.7434083
   3.0111673  29.6722753  34.5834083   2.4991673  29.5272753  33.3194083
   3.1011673  29.6522753  33.8044083   2.6271673  22.2812753  28.2254083
   3.3051673  22.2992753  27.6764083   2.5821673  21.4452753  28.4704083
   2.7201673  22.1602753  28.1804083   3.2291673  32.8672753  31.0064083
   3.3671673  33.6272753  30.5994083   4.0201673  32.5022753  31.0334083
   3.3661673  32.9262753  30.9504083   4.3241673  30.7522753  25.5114083
   4.6721673  29.9532753  25.5414083   4.9891673  31.2562753  25.2564083
   4.4741673  30.7082753  25.4784083   4.3811673  30.2012753  21.7224083
   4.7121673  29.5572753  22.2084083   4.6211673  29.9902753  20.9114083
   4.4651673  30.0752753  21.6744083   6.3491673  24.3322753  33.0614083
   5.5011673  24.2332753  32.8834083   6.3781673  25.0772753  33.5154083
   6.2281673  24.4282753  33.1024083  10.9071673  17.2922753  32.1754083
  10.7491673  18.0612753  31.7934083  10.1351673  17.0722753  32.5194083
  10.7691673  17.3732753  32.1704083   3.6961673  19.0072753  24.3904083
   3.7691673  19.8672753  24.5194083   3.6581673  18.9322753  23.5224083
   3.7011673  19.1232753  24.2814083   8.3691673  21.9332753  16.6894083
   7.9191673  22.6142753  16.9964083   8.4831673  21.4292753  17.3924083
   8.3201673  21.9592753  16.8384083   2.3251673  31.9862753  21.2714083
   1.7461673  31.7112753  21.8634083   2.9491673  31.3772753  21.2964083
   2.3321673  31.8562753  21.3624083   8.4681673  34.2742753  18.7934083
   9.1951673  34.7462753  18.8954083   8.6971673  33.4802753  19.0734083
   8.6101673  34.2272753  18.8504083   6.6361673  34.6662753  20.7834083
   6.8501673  35.1932753  21.4454083   7.4031673  34.4922753  20.4044083
   6.7811673  34.7182753  20.8254083   2.9101673  21.3822753  35.6804083
   3.0271673  20.9282753  34.9444083   3.1981673  22.1802753  35.4774083
   2.9701673  21.4332753  35.5414083  13.7631673  21.9062753  22.9844083
  13.4171673  22.5842753  23.4104083  13.1271673  21.3082753  23.0004083
  13.6181673  21.9182753  23.0494083   9.0751673  34.6762753  29.0884083
   9.8191673  35.1322753  29.0784083   8.9541673  34.4622753  28.2514083
   9.1671673  34.7122753  28.9634083   2.0791673  34.1512753  24.5184083
   2.9231673  34.2552753  24.3234083   1.7821673  34.9692753  24.5864083
   2.1601673  34.2872753  24.4994083   5.2921673  18.6222753  33.8324083
   5.4701673  17.8132753  33.5574083   5.1491673  19.0632753  33.0934083
   5.2971673  18.5682753  33.6824083   5.8861673  23.5482753  22.6054083
   6.1731673  23.3162753  21.8154083   6.6181673  23.6272753  23.0744083
   6.0361673  23.5252753  22.5584083   6.6081673  23.8872753  17.7264083
   6.8891673  24.6752753  17.9754083   5.8321673  24.0522753  17.3634083
   6.5351673  24.0282753  17.7094083  10.6491673  35.8612753  19.1934083
  11.3141673  35.7132753  18.6484083  11.0091673  35.7782753  19.9834083
  10.8011673  35.8272753  19.2294083  13.4381673  20.2292753  28.3534083
  14.1951673  20.3012753  27.9254083  13.5011673  19.4562753  28.7524083
  13.5591673  20.1262753  28.3484083   8.3291673  31.8612753  32.7924083
   8.2951673  32.2432753  33.5764083   9.1831673  31.8192753  32.6214083
   8.4501673  31.9112753  32.8834083   5.4671673  32.0582753  17.5424083
   5.2861673  32.6032753  18.1994083   6.2331673  32.3482753  17.2414083
   5.5531673  32.1822753  17.5954083   8.9741673  19.9542753  18.5964083
   9.5141673  19.2722753  18.6724083   9.0361673  20.3522753  19.3704083
   9.0631673  19.9122753  18.7224083   6.2321673  22.3302753  19.9104083
   5.7241673  21.6682753  19.6564083   6.2841673  22.8342753  19.2004083
   6.1651673  22.3072753  19.7684083   6.7811673  35.0252753  30.2904083
   7.5491673  34.9452753  29.8844083   6.1981673  34.9042753  29.6524083
   6.8081673  34.9952753  30.1364083   6.2321673  19.2712753  19.8014083
   5.7771673  18.8692753  19.1754083   7.0051673  19.4262753  19.4264083
   6.2791673  19.2352753  19.6534083  13.0581673  35.6282753  23.1914083
  12.6031673  36.3452753  23.3924083  12.4441673  35.0572753  22.9494083
  12.9001673  35.6502753  23.1854083   4.8301673  21.6382753  24.3234083
   4.9041673  22.2062753  23.6654083   4.9511673  22.1302753  25.0334083
   4.8581673  21.7952753  24.3314083  10.0551673  31.4732753  22.7354083
  10.7561673  30.9912753  22.9244083   9.3951673  30.9042753  22.7804083
  10.0611673  31.3182753  22.7694083   2.3941673  27.8942753  26.6964083
   2.5661673  27.6842753  27.5254083   1.7391673  27.3602753  26.4804083
   2.3231673  27.7842753  26.7874083   8.6221673  21.8082753  30.2114083
   8.5271673  22.1272753  31.0174083   8.0291673  21.1692753  30.1734083
   8.5201673  21.7602753  30.3254083   3.1441673  27.8322753  29.2864083
   3.1971673  28.6792753  29.4884083   2.8591673  27.4622753  30.0234083
   3.1101673  27.9022753  29.4244083   9.3211673  28.5272753  28.4164083
   8.8071673  28.1152753  28.9874083   9.1951673  29.3712753  28.5974083
   9.2271673  28.5912753  28.5274083   9.8781673  17.7522753  23.0474083
   9.9271673  17.4342753  23.8584083  10.2011673  17.1082753  22.5544083
   9.9331673  17.6102753  23.0944083  12.3421673  21.9882753  31.3554083
  13.1141673  21.7632753  31.6924083  11.8671673  22.2052753  32.0554083
  12.3861673  21.9872753  31.5084083  12.5741673  28.9662753  18.5434083
  12.6931673  28.6792753  19.3584083  13.3811673  28.9872753  18.2134083
  12.7101673  28.9272753  18.6154083  14.8081673  33.4752753  32.7974083
  14.1261673  33.7852753  32.3504083  14.4391673  33.0172753  33.4424083
  14.6521673  33.4532753  32.8264083  10.4691673  25.5032753  18.1284083
  10.2491673  26.2342753  17.7064083  10.0211673  25.5542753  18.8754083
  10.3701673  25.6182753  18.1764083   2.0781673  28.7052753  22.1094083
   2.7911673  29.2002753  22.1994083   2.3001673  28.1382753  21.4834083
   2.2161673  28.6942753  22.0304083  14.6561673  20.3642753  17.5814083
  13.9941673  19.7962753  17.6044083  14.4631673  20.8762753  16.9014083
  14.5301673  20.3562753  17.4844083   3.8811673  24.0582753  35.5254083
   3.3971673  24.6352753  35.9674083   3.8531673  24.3532753  34.7044083
   3.8051673  24.1872753  35.4694083  14.9791673  24.7422753  30.1374083
  15.1941673  23.9422753  29.8614083  14.1291673  24.8022753  29.9484083
  14.8851673  24.6332753  30.0684083  12.6581673  19.9222753  19.8604083
  13.4041673  19.5152753  20.0594083  12.9211673  20.6372753  19.4354083
  12.8071673  19.9682753  19.8274083   6.6011673  32.4082753  24.4364083
   6.0781673  33.0422753  24.1434083   6.9111673  32.0442753  23.7074083
   6.5691673  32.4482753  24.2854083   9.1121673  22.2102753  24.9334083
   9.4561673  22.3622753  25.7204083   8.6591673  21.4722753  25.0464083
   9.0961673  22.1232753  25.0664083   3.5881673  21.4302753  19.3904083
   3.5861673  21.3132753  18.5254083   3.4071673  22.2782753  19.4824083
   3.5611673  21.5382753  19.2764083  12.6421673  33.8572753  30.8874083
  11.9711673  34.3712753  31.1054083  12.7051673  33.9572753  30.0234083
  12.5521673  33.9482753  30.7924083  10.4331673  23.5422753  27.4874083
   9.7711673  23.8702753  27.9504083  10.6201673  24.1762753  26.9184083
  10.3631673  23.6842753  27.4714083   4.6381673  34.6062753  28.4834083
   4.3611673  33.9652753  27.9604083   4.4301673  35.3322753  28.0454083
   4.5671673  34.6192753  28.3414083   7.0781673  19.4482753  30.9164083
   7.2271673  18.6232753  30.6734083   7.4571673  19.5032753  31.7004083
   7.1561673  19.3342753  30.9964083   8.6261673  21.5112753  20.9984083
   9.1161673  22.2282753  20.9214083   7.8361673  21.7722753  20.7354083
   8.5821673  21.6552753  20.9484083   9.9401673  29.3892753  32.9084083
  10.4241673  30.1072753  33.0064083  10.3341673  28.9622753  32.2574083
  10.0701673  29.4322753  32.8264083   4.2361673  32.2342753  34.0854083
   4.5901673  32.0562753  34.8624083   3.8001673  31.5052753  33.8864083
   4.2241673  32.1002753  34.1714083   5.2081673  22.9812753  26.7234083
   5.6881673  23.6802753  26.9314083   5.5811673  22.3342753  27.1744083
   5.3341673  22.9892753  26.8204083   7.3971673  26.1502753  18.9974083
   7.3891673  26.8722753  18.5074083   6.7581673  26.2852753  19.5744083
   7.3021673  26.2772753  19.0104083  12.3691673  30.0202753  22.9784083
  12.7251673  29.6702753  23.6934083  12.3611673  29.3592753  22.4084083
  12.4211673  29.8702753  22.9994083   8.4141673  33.0862753  26.8224083
   7.8111673  32.7902753  26.2654083   8.9591673  33.5382753  26.3134083
   8.4051673  33.1092753  26.6644083   8.4271673  29.9372753  26.2224083
   7.6301673  30.1612753  26.4964083   8.6851673  29.3432753  26.8074083
   8.3471673  29.8822753  26.3494083   2.3191673  34.7492753  20.6704083
   2.1721673  33.9732753  21.0414083   3.0081673  34.6022753  20.1554083
   2.3991673  34.6122753  20.6494083   4.6111673  34.2652753  19.0724083
   5.2331673  34.4282753  19.6624083   4.6471673  34.9562753  18.5404083
   4.7081673  34.3912753  19.0814083  11.6871673  27.9352753  31.0684083
  11.7421673  28.0602753  30.2064083  12.4401673  28.2552753  31.3704083
  11.8061673  28.0002753  30.9854083   7.8781673  33.2842753  35.3454083
   8.0421673  33.5672753  36.1544083   8.1411673  33.9452753  34.8404083
   7.9411673  33.4242753  35.3904083  12.7191673  18.2332753  34.0554083
  12.0821673  17.8332753  33.6134083  12.7451673  17.8022753  34.8134083
  12.6291673  18.1112753  34.1014083   7.4181673  27.7412753  30.6684083
   7.2631673  28.3512753  31.2724083   7.9521673  27.1832753  31.0744083
   7.4741673  27.7492753  30.8174083   5.8021673  26.1412753  21.3264083
   5.8611673  26.7912753  21.9054083   5.6131673  25.4452753  21.8174083
   5.7831673  26.1342753  21.4844083  11.0281673  30.4702753  27.1954083
  10.5491673  30.7682753  26.5294083  10.6721673  29.6942753  27.3734083
  10.9051673  30.3992753  27.1234083   5.0251673  28.1882753  25.7574083
   4.1781673  27.9942753  25.8384083   5.3491673  28.0232753  26.5504083
   4.9471673  28.1352753  25.8864083   1.7771673  34.9182753  16.6434083
   2.2161673  34.2212753  16.9314083   1.9841673  35.5422753  17.2164083
   1.8731673  34.9072753  16.7704083   2.1031673  23.0522753  24.8084083
   2.9491673  22.8622753  24.9064083   1.7331673  22.2752753  24.6704083
   2.1731673  22.9092753  24.8024083  14.7201673  34.6362753  19.1354083
  15.4141673  34.1692753  18.8874083  14.1811673  34.0382753  19.4724083
  14.7431673  34.4782753  19.1484083  11.9591673  27.4122753  28.3144083
  11.9521673  26.6362753  28.7124083  11.1181673  27.6462753  28.3074083
  11.8341673  27.3322753  28.3724083  13.2151673  27.4832753  25.7514083
  12.9291673  27.8842753  26.4714083  14.0751673  27.4212753  25.8784083
  13.3001673  27.5332753  25.8764083   2.9041673  24.2852753  19.6594083
   3.1761673  25.1112753  19.7264083   2.0411673  24.3602753  19.5634083
   2.8171673  24.4182753  19.6544083  10.8771673  21.4072753  34.2914083
  10.3521673  21.8662753  34.8154083  10.5161673  20.6122753  34.2854083
  10.7461673  21.3572753  34.3674083  14.3461673  33.1162753  26.2804083
  14.6361673  33.3732753  25.4994083  15.0411673  33.2122753  26.7994083
  14.4921673  33.1682753  26.2414083   9.3691673  24.9762753  34.3674083
   9.4421673  25.0802753  35.2304083   8.7351673  25.5342753  34.1464083
   9.2861673  25.0742753  34.4624083  11.6371673  25.2952753  32.7324083
  11.9561673  26.0812753  32.9354083  11.2671673  25.0252753  33.4754083
  11.6301673  25.3712753  32.8724083  10.9511673  31.7192753  18.2624083
  11.2851673  30.9132753  18.2974083  10.1961673  31.6472753  18.6924083
  10.8891673  31.5892753  18.3314083  11.4331673  23.5532753  23.9214083
  10.6881673  23.2302753  24.2394083  11.4351673  24.3792753  24.2014083
  11.3231673  23.6272753  24.0094083  14.3351673  25.8372753  35.4674083
  14.2831673  25.4962753  34.6664083  15.0721673  26.3042753  35.4454083
  14.4361673  25.8562753  35.3454083  13.8731673  29.5132753  31.6734083
  14.5011673  28.9642753  31.4174083  13.8121673  30.0782753  31.0114083
  13.9571673  29.5162753  31.5374083   8.3251673  29.5942753  17.6654083
   9.0091673  29.0802753  17.4964083   7.9081673  29.6402753  16.9004083
   8.3641673  29.5252753  17.5274083   3.0071673  30.7442753  28.9694083
   2.7091673  31.3362753  29.5364083   3.0621673  31.1862753  28.2204083
   2.9711673  30.8972753  28.9424083  10.3451673  19.8832753  31.3824083
  11.0891673  20.3352753  31.3194083   9.7791673  20.3532753  30.9134083
  10.3721673  20.0202753  31.3044083   5.5231673  27.1672753  28.4604083
   5.9991673  27.5412753  29.0884083   4.7001673  27.3012753  28.7194083
   5.4721673  27.2422753  28.5914083   2.2331673  22.7702753  31.2014083
   2.3941673  22.0262753  31.6284083   2.1881673  22.5212753  30.3664083
   2.2501673  22.6232753  31.1414083   4.7871673  34.5602753  23.6884083
   5.3331673  35.2392753  23.7424083   4.4371673  34.6422753  22.8934083
   4.8161673  34.6732753  23.5784083  11.6301673  17.8632753  29.0524083
  11.3501673  18.6882753  29.0084083  12.3461673  17.9162753  29.5484083
  11.6951673  17.9932753  29.1194083   3.9851673  18.5782753  31.0814083
   4.6901673  18.8982753  30.6794083   4.2261673  17.7712753  31.3084083
   4.1241673  18.5062753  31.0554083   2.9701673  32.7882753  27.0774083
   2.3461673  33.3702753  26.8954083   3.2181673  32.5022753  26.2914083
   2.9141673  32.8322753  26.9344083   7.2791673  29.4222753  34.0664083
   8.0361673  29.7082753  33.7404083   6.7321673  29.4742753  33.3884083
   7.3101673  29.4722753  33.9174083  11.1881673  31.9722753  32.5704083
  11.5341673  32.2422753  33.3244083  11.4821673  32.5542753  31.9904083
  11.2831673  32.0982753  32.5964083  13.0511673  24.1182753  17.9094083
  13.4291673  24.7952753  17.5094083  12.2091673  24.3422753  17.9404083
  12.9821673  24.2512753  17.8544083   4.5641673  27.5642753  16.9924083
   3.7591673  27.3872753  16.7074083   4.5311673  28.4152753  17.1844083
   4.4401673  27.6632753  16.9794083   8.5101673  22.7332753  32.7344083
   7.8621673  23.2032753  33.0824083   9.0751673  22.6442753  33.3934083
   8.4981673  22.7892753  32.8834083   8.1981673  24.2702753  29.0324083
   8.5001673  24.6902753  29.7354083   8.2341673  23.4302753  29.2644083
   8.2481673  24.2082753  29.1704083   5.6231673  34.4372753  32.9574083
   6.1011673  33.8372753  32.5414083   5.2721673  33.9942753  33.6224083
   5.6421673  34.2832753  32.9944083  10.7461673  23.7172753  21.2844083
  10.9531673  23.5162753  22.1084083  11.5021673  23.9852753  20.9424083
  10.8881673  23.7272753  21.3554083   4.0411673  18.6162753  27.1894083
   3.2151673  18.4672753  27.4264083   4.0011673  18.6512753  26.3184083
   3.9131673  18.5992753  27.0954083  11.7681673  19.8002753  22.7584083
  11.0541673  19.3292753  22.9294083  11.6061673  20.1412753  21.9724083
  11.6391673  19.7812753  22.6674083  12.2111673  27.7442753  21.1384083
  12.6871673  27.0152753  21.0904083  11.3901673  27.4582753  21.0624083
  12.1601673  27.5942753  21.1194083   5.6821673  29.6562753  31.9774083
   4.8871673  29.5922753  32.3284083   5.7531673  30.5032753  31.7824083
   5.5751673  29.7712753  32.0004083   8.4271673  28.9112753  23.4934083
   8.5031673  29.2522753  24.2924083   8.5961673  28.0642753  23.6144083
   8.4631673  28.8362753  23.6294083   5.9491673  28.1852753  23.0584083
   5.6511673  27.8702753  23.8154083   6.6441673  28.6582753  23.2934083
   6.0081673  28.2082753  23.2054083   6.1711673  32.3032753  31.0854083
   6.8581673  32.1892753  31.6104083   6.3051673  33.0942753  30.7414083
   6.2921673  32.4032753  31.1124083  14.3471673  24.9122753  32.8964083
  13.4921673  24.7902753  33.0224083  14.5001673  24.5172753  32.1334083
  14.2431673  24.8352753  32.8024083   8.8601673  25.5772753  31.4724083
   8.6051673  24.8582753  31.8944083   9.6811673  25.6932753  31.7424083
   8.9441673  25.4882753  31.5744083   6.7941673  26.7672753  34.6594083
   7.1171673  27.4532753  34.2274083   6.0901673  27.0902753  35.0614083
   6.7371673  26.9162753  34.6544083   9.8781673  35.1412753  25.5884083
   9.4271673  35.7842753  25.9674083  10.5861673  35.0622753  26.0934083
   9.9161673  35.2242753  25.7194083   6.5791673  30.2312753  28.5184083
   5.8851673  30.6332753  28.8614083   7.2561673  30.6642753  28.8574083
   6.5761673  30.3542753  28.6194083  11.9561673  32.8242753  35.0984083
  12.7321673  32.4342753  35.1814083  11.4871673  32.4882753  35.7534083
  12.0011673  32.7172753  35.2074083  12.9811673  24.8572753  20.5804083
  13.0841673  24.7992753  19.7164083  13.7221673  24.5252753  20.8984083
  13.1061673  24.8002753  20.4994083   6.9011673  31.8222753  21.6874083
   6.6961673  32.6552753  21.5284083   6.1261673  31.4402753  21.8094083
   6.7561673  31.8892753  21.6824083  12.0831673  25.0032753  29.9364083
  12.0811673  24.1402753  30.0604083  12.1501673  25.3272753  30.7434083
  12.0931673  24.9232753  30.0734083   7.9621673  19.8032753  33.7184083
   8.0541673  20.5152753  34.2124083   7.3251673  19.3582753  34.1154083
   7.8811673  19.8422753  33.8504083   6.9561673  19.9932753  24.5724083
   6.2561673  20.5112753  24.5164083   6.9941673  19.6132753  23.7884083
   6.8581673  20.0142753  24.4484083   2.2631673  32.0842753  18.0964083
   2.7041673  32.1642753  18.8444083   1.4581673  31.8682753  18.3544083
   2.2091673  32.0642753  18.2454083  10.5541673  20.5092753  27.3724083
  11.4091673  20.6082753  27.5174083  10.1851673  21.0622753  27.9374083
  10.6261673  20.6062753  27.4774083  10.8581673  25.7892753  25.8634083
  11.5241673  26.3302753  26.0234083  10.5131673  26.1002753  25.1244083
  10.9051673  25.9152753  25.7784083  11.1711673  33.8552753  21.6704083
  10.9971673  33.2012753  22.2204083  11.8841673  33.5842753  21.2474083
  11.2511673  33.7182753  21.6894083   2.4111673  29.3992753  17.4404083
   1.5931673  29.1312753  17.5804083   2.3831673  30.2512753  17.6254083
   2.2861673  29.4862753  17.4884083  14.0291673  18.3472753  30.5284083
  13.9771673  18.3032753  31.3984083  14.7161673  17.8442753  30.3384083
  14.1231673  18.2672753  30.6284083   6.1141673  20.4602753  27.5734083
   5.3771673  20.0062753  27.6864083   6.6851673  20.0582753  28.0964083
   6.0891673  20.3332753  27.6674083   8.8461673  31.3082753  29.3614083
   9.0521673  31.6092753  30.1534083   8.7851673  32.0302753  28.8764083
   8.8671673  31.4592753  29.4064083   8.3801673  35.5222753  33.6074083
   7.6271673  35.5042753  33.1664083   8.5481673  36.3742753  33.6914083
   8.2941673  35.6452753  33.5544083   3.6171673  24.7892753  32.7774083
   3.2951673  24.2132753  32.2074083   3.2581673  25.5442753  32.5314083
   3.5171673  24.8152753  32.6574083   4.4131673  18.0412753  17.4044083
   4.4911673  18.2882753  16.5714083   3.6701673  18.4182753  17.6624083
   4.3151673  18.1332753  17.3194083  13.6581673  29.9472753  28.8194083
  13.6261673  29.0852753  28.6844083  12.9651673  30.2492753  28.3854083
  13.5511673  29.8642753  28.7354083   2.0521673  35.1452753  33.0254083
   2.0931673  35.2712753  33.8884083   2.7031673  34.5852753  32.8694083
   2.1541673  35.0812753  33.1304083  11.7631673  33.2072753  27.6164083
  12.2901673  33.1242753  26.9254083  11.3721673  32.4292753  27.6704083
  11.7831673  33.0802753  27.5224083   8.2771673  18.6512753  26.8244083
   8.9471673  19.1952753  26.9514083   7.7741673  19.0752753  26.2514083
   8.3021673  18.7942753  26.7584083   7.6361673  24.4592753  24.3174083
   8.1871673  23.8522753  24.6174083   7.2111673  24.7222753  25.0324083
   7.6551673  24.4082753  24.4664083   9.6061673  26.2902753  20.8794083
   9.6741673  25.4402753  21.0604083   8.7831673  26.3762753  20.6014083
   9.4941673  26.1772753  20.8654083   3.5251673  27.1812753  19.8174083
   3.6251673  27.3202753  18.9624083   4.3431673  27.1212753  20.1134083
   3.6601673  27.1922753  19.7344083  12.6851673  35.2452753  17.2974083
  13.3221673  35.1112753  17.8784083  12.3441673  34.4512753  17.1804083
  12.7291673  35.1082753  17.3654083  12.8801673  27.6632753  34.0304083
  13.5141673  27.4932753  34.6044083  13.2971673  28.0662753  33.3784083
  13.0351673  27.6982753  34.0194083   8.7601673  31.5102753  19.6194083
   8.5091673  31.3822753  20.4454083   8.4431673  30.8152753  19.1984083
   8.6761673  31.3892753  19.6794083  13.5051673  22.2272753  34.7684083
  13.3091673  22.8712753  35.3234083  12.7831673  21.7372753  34.7604083
  13.3701673  22.2502753  34.8494083  13.4041673  23.1682753  27.7394083
  12.5711673  23.4182753  27.6674083  13.3481673  22.3282753  27.9684083
  13.2731673  23.0812753  27.7624083   2.6641673  20.1562753  32.9334083
   2.8981673  19.5802753  32.3204083   1.8221673  19.9752753  33.0744083
   2.5741673  20.0442753  32.8634083  10.2911673  27.7742753  35.3854083
  11.1621673  27.7382753  35.3494083  10.0721673  28.1942753  34.6534083
  10.3881673  27.8302753  35.2724083   5.6461673  29.7182753  19.0494083
   6.3631673  29.3712753  18.6934083   5.6121673  30.5182753  18.7014083
   5.7471673  29.7852753  18.9454083   7.0551673  18.3592753   3.2881673
   6.8101673  18.8472753   2.6081673   7.9181673  18.2862753   3.1881673
   7.1461673  18.4202753   3.1731673   6.8641673  25.2752753   7.9591673
   6.3401673  25.8712753   8.3221673   7.2611673  24.9072753   8.6431673
   6.8451673  25.3092753   8.1141673   9.5351673  26.3422753   4.6351673
   9.6151673  26.3462753   3.7661673   8.9511673  25.7102753   4.7841673
   9.4601673  26.2492753   4.5291673   3.5241673  19.4462753   2.4431673
   3.4541673  20.1232753   1.8971673   4.2651673  19.0582753   2.1941673
   3.6231673  19.4892753   2.3251673   3.2471673  29.6752753  14.7371673
   3.0111673  29.6722753  15.5771673   2.4991673  29.5272753  14.3131673
   3.1011673  29.6522753  14.7981673   2.6271673  22.2812753   9.2191673
   3.3051673  22.2992753   8.6701673   2.5821673  21.4452753   9.4641673
   2.7201673  22.1602753   9.1741673   3.2291673  32.8672753  12.0001673
   3.3671673  33.6272753  11.5931673   4.0201673  32.5022753  12.0271673
   3.3661673  32.9262753  11.9441673   4.3241673  30.7522753   6.5051673
   4.6721673  29.9532753   6.5351673   4.9891673  31.2562753   6.2501673
   4.4741673  30.7082753   6.4721673   4.3811673  30.2012753   2.7161673
   4.7121673  29.5572753   3.2021673   4.6211673  29.9902753   1.9051673
   4.4651673  30.0752753   2.6681673   6.3491673  24.3322753  14.0551673
   5.5011673  24.2332753  13.8771673   6.3781673  25.0772753  14.5091673
   6.2281673  24.4282753  14.0961673  10.9071673  17.2922753  13.1691673
  10.7491673  18.0612753  12.7871673  10.1351673  17.0722753  13.5131673
  10.7691673  17.3732753  13.1641673   3.6961673  19.0072753   5.3841673
   3.7691673  19.8672753   5.5131673   3.6581673  18.9322753   4.5161673
   3.7011673  19.1232753   5.2751673   2.3251673  31.9862753   2.2651673
   1.7461673  31.7112753   2.8571673   2.9491673  31.3772753   2.2901673
   2.3321673  31.8562753   2.3561673   6.6361673  34.6662753   1.7771673
   6.8501673  35.1932753   2.4391673   7.4031673  34.4922753   1.3981673
   6.7811673  34.7182753   1.8191673   2.9101673  21.3822753  16.6741673
   3.0271673  20.9282753  15.9381673   3.1981673  22.1802753  16.4711673
   2.9701673  21.4332753  16.5351673  13.7631673  21.9062753   3.9781673
  13.4171673  22.5842753   4.4041673  13.1271673  21.3082753   3.9941673
  13.6181673  21.9182753   4.0431673   9.0751673  34.6762753  10.0821673
   9.8191673  35.1322753  10.0721673   8.9541673  34.4622753   9.2451673
   9.1671673  34.7122753   9.9571673   2.0791673  34.1512753   5.5121673
   2.9231673  34.2552753   5.3171673   1.7821673  34.9692753   5.5801673
   2.1601673  34.2872753   5.4931673   5.2921673  18.6222753  14.8261673
   5.4701673  17.8132753  14.5511673   5.1491673  19.0632753  14.0871673
   5.2971673  18.5682753  14.6761673   5.8861673  23.5482753   3.5991673
   6.1731673  23.3162753   2.8091673   6.6181673  23.6272753   4.0681673
   6.0361673  23.5252753   3.5521673  13.4381673  20.2292753   9.3471673
  14.1951673  20.3012753   8.9191673  13.5011673  19.4562753   9.7461673
  13.5591673  20.1262753   9.3421673   8.3291673  31.8612753  13.7861673
   8.2951673  32.2432753  14.5701673   9.1831673  31.8192753  13.6151673
   8.4501673  31.9112753  13.8771673   6.7811673  35.0252753  11.2841673
   7.5491673  34.9452753  10.8781673   6.1981673  34.9042753  10.6461673
   6.8081673  34.9952753  11.1301673  13.0581673  35.6282753   4.1851673
  12.6031673  36.3452753   4.3861673  12.4441673  35.0572753   3.9431673
  12.9001673  35.6502753   4.1791673   4.8301673  21.6382753   5.3171673
   4.9041673  22.2062753   4.6591673   4.9511673  22.1302753   6.0271673
   4.8581673  21.7952753   5.3251673  10.0551673  31.4732753   3.7291673
  10.7561673  30.9912753   3.9181673   9.3951673  30.9042753   3.7741673
  10.0611673  31.3182753   3.7631673   2.3941673  27.8942753   7.6901673
   2.5661673  27.6842753   8.5191673   1.7391673  27.3602753   7.4741673
   2.3231673  27.7842753   7.7811673   8.6221673  21.8082753  11.2051673
   8.5271673  22.1272753  12.0111673   8.0291673  21.1692753  11.1671673
   8.5201673  21.7602753  11.3191673   3.1441673  27.8322753  10.2801673
   3.1971673  28.6792753  10.4821673   2.8591673  27.4622753  11.0171673
   3.1101673  27.9022753  10.4181673   9.3211673  28.5272753   9.4101673
   8.8071673  28.1152753   9.9811673   9.1951673  29.3712753   9.5911673
   9.2271673  28.5912753   9.5211673   9.8781673  17.7522753   4.0411673
   9.9271673  17.4342753   4.8521673  10.2011673  17.1082753   3.5481673
   9.9331673  17.6102753   4.0881673  12.3421673  21.9882753  12.3491673
  13.1141673  21.7632753  12.6861673  11.8671673  22.2052753  13.0491673
  12.3861673  21.9872753  12.5021673  14.8081673  33.4752753  13.7911673
  14.1261673  33.7852753  13.3441673  14.4391673  33.0172753  14.4361673
  14.6521673  33.4532753  13.8201673   2.0781673  28.7052753   3.1031673
   2.7911673  29.2002753   3.1931673   2.3001673  28.1382753   2.4771673
   2.2161673  28.6942753   3.0241673   3.8811673  24.0582753  16.5191673
   3.3971673  24.6352753  16.9611673   3.8531673  24.3532753  15.6981673
   3.8051673  24.1872753  16.4631673  14.9791673  24.7422753  11.1311673
  15.1941673  23.9422753  10.8551673  14.1291673  24.8022753  10.9421673
  14.8851673  24.6332753  11.0621673   6.6011673  32.4082753   5.4301673
   6.0781673  33.0422753   5.1371673   6.9111673  32.0442753   4.7011673
   6.5691673  32.4482753   5.2791673   9.1121673  22.2102753   5.9271673
   9.4561673  22.3622753   6.7141673   8.6591673  21.4722753   6.0401673
   9.0961673  22.1232753   6.0601673  12.6421673  33.8572753  11.8811673
  11.9711673  34.3712753  12.0991673  12.7051673  33.9572753  11.0171673
  12.5521673  33.9482753  11.7861673  10.4331673  23.5422753   8.4811673
   9.7711673  23.8702753   8.9441673  10.6201673  24.1762753   7.9121673
  10.3631673  23.6842753   8.4651673   4.6381673  34.6062753   9.4771673
   4.3611673  33.9652753   8.9541673   4.4301673  35.3322753   9.0391673
   4.5671673  34.6192753   9.3351673   7.0781673  19.4482753  11.9101673
   7.2271673  18.6232753  11.6671673   7.4571673  19.5032753  12.6941673
   7.1561673  19.3342753  11.9901673   8.6261673  21.5112753   1.9921673
   9.1161673  22.2282753   1.9151673   7.8361673  21.7722753   1.7291673
   8.5821673  21.6552753   1.9421673   9.9401673  29.3892753  13.9021673
  10.4241673  30.1072753  14.0001673  10.3341673  28.9622753  13.2511673
  10.0701673  29.4322753  13.8201673   4.2361673  32.2342753  15.0791673
   4.5901673  32.0562753  15.8561673   3.8001673  31.5052753  14.8801673
   4.2241673  32.1002753  15.1651673   5.2081673  22.9812753   7.7171673
   5.6881673  23.6802753   7.9251673   5.5811673  22.3342753   8.1681673
   5.3341673  22.9892753   7.8141673  12.3691673  30.0202753   3.9721673
  12.7251673  29.6702753   4.6871673  12.3611673  29.3592753   3.4021673
  12.4211673  29.8702753   3.9931673   8.4141673  33.0862753   7.8161673
   7.8111673  32.7902753   7.2591673   8.9591673  33.5382753   7.3071673
   8.4051673  33.1092753   7.6581673   8.4271673  29.9372753   7.2161673
   7.6301673  30.1612753   7.4901673   8.6851673  29.3432753   7.8011673
   8.3471673  29.8822753   7.3431673  11.6871673  27.9352753  12.0621673
  11.7421673  28.0602753  11.2001673  12.4401673  28.2552753  12.3641673
  11.8061673  28.0002753  11.9791673   7.8781673  33.2842753  16.3391673
   8.0421673  33.5672753  17.1481673   8.1411673  33.9452753  15.8341673
   7.9411673  33.4242753  16.3841673  12.7191673  18.2332753  15.0491673
  12.0821673  17.8332753  14.6071673  12.7451673  17.8022753  15.8071673
  12.6291673  18.1112753  15.0951673   7.4181673  27.7412753  11.6621673
   7.2631673  28.3512753  12.2661673   7.9521673  27.1832753  12.0681673
   7.4741673  27.7492753  11.8111673   5.8021673  26.1412753   2.3201673
   5.8611673  26.7912753   2.8991673   5.6131673  25.4452753   2.8111673
   5.7831673  26.1342753   2.4781673  11.0281673  30.4702753   8.1891673
  10.5491673  30.7682753   7.5231673  10.6721673  29.6942753   8.3671673
  10.9051673  30.3992753   8.1171673   5.0251673  28.1882753   6.7511673
   4.1781673  27.9942753   6.8321673   5.3491673  28.0232753   7.5441673
   4.9471673  28.1352753   6.8801673   2.1031673  23.0522753   5.8021673
   2.9491673  22.8622753   5.9001673   1.7331673  22.2752753   5.6641673
   2.1731673  22.9092753   5.7961673  11.9591673  27.4122753   9.3081673
  11.9521673  26.6362753   9.7061673  11.1181673  27.6462753   9.3011673
  11.8341673  27.3322753   9.3661673  13.2151673  27.4832753   6.7451673
  12.9291673  27.8842753   7.4651673  14.0751673  27.4212753   6.8721673
  13.3001673  27.5332753   6.8701673  10.8771673  21.4072753  15.2851673
  10.3521673  21.8662753  15.8091673  10.5161673  20.6122753  15.2791673
  10.7461673  21.3572753  15.3611673  14.3461673  33.1162753   7.2741673
  14.6361673  33.3732753   6.4931673  15.0411673  33.2122753   7.7931673
  14.4921673  33.1682753   7.2351673   9.3691673  24.9762753  15.3611673
   9.4421673  25.0802753  16.2241673   8.7351673  25.5342753  15.1401673
   9.2861673  25.0742753  15.4561673  11.6371673  25.2952753  13.7261673
  11.9561673  26.0812753  13.9291673  11.2671673  25.0252753  14.4691673
  11.6301673  25.3712753  13.8661673  11.4331673  23.5532753   4.9151673
  10.6881673  23.2302753   5.2331673  11.4351673  24.3792753   5.1951673
  11.3231673  23.6272753   5.0031673  14.3351673  25.8372753  16.4611673
  14.2831673  25.4962753  15.6601673  15.0721673  26.3042753  16.4391673
  14.4361673  25.8562753  16.3391673  13.8731673  29.5132753  12.6671673
  14.5011673  28.9642753  12.4111673  13.8121673  30.0782753  12.0051673
  13.9571673  29.5162753  12.5311673   3.0071673  30.7442753   9.9631673
   2.7091673  31.3362753  10.5301673   3.0621673  31.1862753   9.2141673
   2.9711673  30.8972753   9.9361673  10.3451673  19.8832753  12.3761673
  11.0891673  20.3352753  12.3131673   9.7791673  20.3532753  11.9071673
  10.3721673  20.0202753  12.2981673   5.5231673  27.1672753   9.4541673
   5.9991673  27.5412753  10.0821673   4.7001673  27.3012753   9.7131673
   5.4721673  27.2422753   9.5851673   2.2331673  22.7702753  12.1951673
   2.3941673  22.0262753  12.6221673   2.1881673  22.5212753  11.3601673
   2.2501673  22.6232753  12.1351673   4.7871673  34.5602753   4.6821673
   5.3331673  35.2392753   4.7361673   4.4371673  34.6422753   3.8871673
   4.8161673  34.6732753   4.5721673  11.6301673  17.8632753  10.0461673
  11.3501673  18.6882753  10.0021673  12.3461673  17.9162753  10.5421673
  11.6951673  17.9932753  10.1131673   3.9851673  18.5782753  12.0751673
   4.6901673  18.8982753  11.6731673   4.2261673  17.7712753  12.3021673
   4.1241673  18.5062753  12.0491673   2.9701673  32.7882753   8.0711673
   2.3461673  33.3702753   7.8891673   3.2181673  32.5022753   7.2851673
   2.9141673  32.8322753   7.9281673   7.2791673  29.4222753  15.0601673
   8.0361673  29.7082753  14.7341673   6.7321673  29.4742753  14.3821673
   7.3101673  29.4722753  14.9111673  11.1881673  31.9722753  13.5641673
  11.5341673  32.2422753  14.3181673  11.4821673  32.5542753  12.9841673
  11.2831673  32.0982753  13.5901673   8.5101673  22.7332753  13.7281673
   7.8621673  23.2032753  14.0761673   9.0751673  22.6442753  14.3871673
   8.4981673  22.7892753  13.8771673   8.1981673  24.2702753  10.0261673
   8.5001673  24.6902753  10.7291673   8.2341673  23.4302753  10.2581673
   8.2481673  24.2082753  10.1641673   5.6231673  34.4372753  13.9511673
   6.1011673  33.8372753  13.5351673   5.2721673  33.9942753  14.6161673
   5.6421673  34.2832753  13.9881673  10.7461673  23.7172753   2.2781673
  10.9531673  23.5162753   3.1021673  11.5021673  23.9852753   1.9361673
  10.8881673  23.7272753   2.3491673   4.0411673  18.6162753   8.1831673
   3.2151673  18.4672753   8.4201673   4.0011673  18.6512753   7.3121673
   3.9131673  18.5992753   8.0891673  11.7681673  19.8002753   3.7521673
  11.0541673  19.3292753   3.9231673  11.6061673  20.1412753   2.9661673
  11.6391673  19.7812753   3.6611673  12.2111673  27.7442753   2.1321673
  12.6871673  27.0152753   2.0841673  11.3901673  27.4582753   2.0561673
  12.1601673  27.5942753   2.1131673   5.6821673  29.6562753  12.9711673
   4.8871673  29.5922753  13.3221673   5.7531673  30.5032753  12.7761673
   5.5751673  29.7712753  12.9941673   8.4271673  28.9112753   4.4871673
   8.5031673  29.2522753   5.2861673   8.5961673  28.0642753   4.6081673
   8.4631673  28.8362753   4.6231673   5.9491673  28.1852753   4.0521673
   5.6511673  27.8702753   4.8091673   6.6441673  28.6582753   4.2871673
   6.0081673  28.2082753   4.1991673   6.1711673  32.3032753  12.0791673
   6.8581673  32.1892753  12.6041673   6.3051673  33.0942753  11.7351673
   6.2921673  32.4032753  12.1061673  14.3471673  24.9122753  13.8901673
  13.4921673  24.7902753  14.0161673  14.5001673  24.5172753  13.1271673
  14.2431673  24.8352753  13.7961673   8.8601673  25.5772753  12.4661673
   8.6051673  24.8582753  12.8881673   9.6811673  25.6932753  12.7361673
   8.9441673  25.4882753  12.5681673   6.7941673  26.7672753  15.6531673
   7.1171673  27.4532753  15.2211673   6.0901673  27.0902753  16.0551673
   6.7371673  26.9162753  15.6481673   9.8781673  35.1412753   6.5821673
   9.4271673  35.7842753   6.9611673  10.5861673  35.0622753   7.0871673
   9.9161673  35.2242753   6.7131673   6.5791673  30.2312753   9.5121673
   5.8851673  30.6332753   9.8551673   7.2561673  30.6642753   9.8511673
   6.5761673  30.3542753   9.6131673  11.9561673  32.8242753  16.0921673
  12.7321673  32.4342753  16.1751673  11.4871673  32.4882753  16.7471673
  12.0011673  32.7172753  16.2011673   6.9011673  31.8222753   2.6811673
   6.6961673  32.6552753   2.5221673   6.1261673  31.4402753   2.8031673
   6.7561673  31.8892753   2.6761673  12.0831673  25.0032753  10.9301673
  12.0811673  24.1402753  11.0541673  12.1501673  25.3272753  11.7371673
  12.0931673  24.9232753  11.0671673   7.9621673  19.8032753  14.7121673
   8.0541673  20.5152753  15.2061673   7.3251673  19.3582753  15.1091673
   7.8811673  19.8422753  14.8441673   6.9561673  19.9932753   5.5661673
   6.2561673  20.5112753   5.5101673   6.9941673  19.6132753   4.7821673
   6.8581673  20.0142753   5.4421673  10.5541673  20.5092753   8.3661673
  11.4091673  20.6082753   8.5111673  10.1851673  21.0622753   8.9311673
  10.6261673  20.6062753   8.4711673  10.8581673  25.7892753   6.8571673
  11.5241673  26.3302753   7.0171673  10.5131673  26.1002753   6.1181673
  10.9051673  25.9152753   6.7721673  11.1711673  33.8552753   2.6641673
  10.9971673  33.2012753   3.2141673  11.8841673  33.5842753   2.2411673
  11.2511673  33.7182753   2.6831673  14.0291673  18.3472753  11.5221673
  13.9771673  18.3032753  12.3921673  14.7161673  17.8442753  11.3321673
  14.1231673  18.2672753  11.6221673   6.1141673  20.4602753   8.5671673
   5.3771673  20.0062753   8.6801673   6.6851673  20.0582753   9.0901673
   6.0891673  20.3332753   8.6611673   8.8461673  31.3082753  10.3551673
   9.0521673  31.6092753  11.1471673   8.7851673  32.0302753   9.8701673
   8.8671673  31.4592753  10.4001673   8.3801673  35.5222753  14.6011673
   7.6271673  35.5042753  14.1601673   8.5481673  36.3742753  14.6851673
   8.2941673  35.6452753  14.5481673   3.6171673  24.7892753  13.7711673
   3.2951673  24.2132753  13.2011673   3.2581673  25.5442753  13.5251673
   3.5171673  24.8152753  13.6511673  13.6581673  29.9472753   9.8131673
  13.6261673  29.0852753   9.6781673  12.9651673  30.2492753   9.3791673
  13.5511673  29.8642753   9.7291673   2.0521673  35.1452753  14.0191673
   2.0931673  35.2712753  14.8821673   2.7031673  34.5852753  13.8631673
   2.1541673  35.0812753  14.1241673  11.7631673  33.2072753   8.6101673
  12.2901673  33.1242753   7.9191673  11.3721673  32.4292753   8.6641673
  11.7831673  33.0802753   8.5161673   8.2771673  18.6512753   7.8181673
   8.9471673  19.1952753   7.9451673   7.7741673  19.0752753   7.2451673
   8.3021673  18.7942753   7.7521673   7.6361673  24.4592753   5.3111673
   8.1871673  23.8522753   5.6111673   7.2111673  24.7222753   6.0261673
   7.6551673  24.4082753   5.4601673   9.6061673  26.2902753   1.8731673
   9.6741673  25.4402753   2.0541673   8.7831673  26.3762753   1.5951673
   9.4941673  26.1772753   1.8591673  12.8801673  27.6632753  15.0241673
  13.5141673  27.4932753  15.5981673  13.2971673  28.0662753  14.3721673
  13.0351673  27.6982753  15.0131673  13.5051673  22.2272753  15.7621673
  13.3091673  22.8712753  16.3171673  12.7831673  21.7372753  15.7541673
  13.3701673  22.2502753  15.8431673  13.4041673  23.1682753   8.7331673
  12.5711673  23.4182753   8.6611673  13.3481673  22.3282753   8.9621673
  13.2731673  23.0812753   8.7561673   2.6641673  20.1562753  13.9271673
   2.8981673  19.5802753  13.3141673   1.8221673  19.9752753  14.0681673
   2.5741673  20.0442753  13.8571673  10.2911673  27.7742753  16.3791673
  11.1621673  27.7382753  16.3431673  10.0721673  28.1942753  15.6471673
  10.3881673  27.8302753  16.2661673   6.8641673   6.7971673  83.9841313
   6.3401673   7.3931673  84.3471313   7.2611673   6.4291673  84.6681313
   6.8451673   6.8311673  84.1391313  13.0081673  14.2381673  76.9551313
  13.7091673  13.7191673  76.9511313  12.4211673  13.7931673  76.4861313
  13.0251673  14.0951673  76.8851313   9.5351673   7.8641673  80.6601313
   9.6151673   7.8681673  79.7911313   8.9511673   7.2321673  80.8091313
   9.4601673   7.7711673  80.5541313   2.6271673   3.8031673  85.2441313
   3.3051673   3.8211673  84.6951313   2.5821673   2.9671673  85.4891313
   2.7201673   3.6821673  85.1991313   3.2291673  14.3891673  88.0251313
   3.3671673  15.1491673  87.6181313   4.0201673  14.0241673  88.0521313
   3.3661673  14.4481673  87.9691313   4.3241673  12.2741673  82.5301313
   4.6721673  11.4751673  82.5601313   4.9891673  12.7781673  82.2751313
   4.4741673  12.2301673  82.4971313   4.3811673  11.7231673  78.7411313
   4.7121673  11.0791673  79.2271313   4.6211673  11.5121673  77.9301313
   4.4651673  11.5971673  78.6931313   8.3691673   3.4551673  73.7081313
   7.9191673   4.1361673  74.0151313   8.4831673   2.9511673  74.4111313
   8.3201673   3.4811673  73.8571313   2.3251673  13.5081673  78.2901313
   1.7461673  13.2331673  78.8821313   2.9491673  12.8991673  78.3151313
   2.3321673  13.3781673  78.3811313   8.4681673  15.7961673  75.8121313
   9.1951673  16.2681673  75.9141313   8.6971673  15.0021673  76.0921313
   8.6101673  15.7491673  75.8691313   6.6361673  16.1881673  77.8021313
   6.8501673  16.7151673  78.4641313   7.4031673  16.0141673  77.4231313
   6.7811673  16.2401673  77.8441313  13.7631673   3.4281673  80.0031313
  13.4171673   4.1061673  80.4291313  13.1271673   2.8301673  80.0191313
  13.6181673   3.4401673  80.0681313   9.0751673  16.1981673  86.1071313
   9.8191673  16.6541673  86.0971313   8.9541673  15.9841673  85.2701313
   9.1671673  16.2341673  85.9821313   2.0791673  15.6731673  81.5371313
   2.9231673  15.7771673  81.3421313   1.7821673  16.4911673  81.6051313
   2.1601673  15.8091673  81.5181313   5.8861673   5.0701673  79.6241313
   6.1731673   4.8381673  78.8341313   6.6181673   5.1491673  80.0931313
   6.0361673   5.0471673  79.5771313   6.6081673   5.4091673  74.7451313
   6.8891673   6.1971673  74.9941313   5.8321673   5.5741673  74.3821313
   6.5351673   5.5501673  74.7281313  10.6491673  17.3831673  76.2121313
  11.3141673  17.2351673  75.6671313  11.0091673  17.3001673  77.0021313
  10.8011673  17.3491673  76.2481313   5.4671673  13.5801673  74.5611313
   5.2861673  14.1251673  75.2181313   6.2331673  13.8701673  74.2601313
   5.5531673  13.7041673  74.6141313   6.2321673   3.8521673  76.9291313
   5.7241673   3.1901673  76.6751313   6.2841673   4.3561673  76.2191313
   6.1651673   3.8291673  76.7871313   6.7811673  16.5471673  87.3091313
   7.5491673  16.4671673  86.9031313   6.1981673  16.4261673  86.6711313
   6.8081673  16.5171673  87.1551313  13.0581673  17.1501673  80.2101313
  12.6031673  17.8671673  80.4111313  12.4441673  16.5791673  79.9681313
  12.9001673  17.1721673  80.2041313   4.8301673   3.1601673  81.3421313
   4.9041673   3.7281673  80.6841313   4.9511673   3.6521673  82.0521313
   4.8581673   3.3171673  81.3501313  10.0551673  12.9951673  79.7541313
  10.7561673  12.5131673  79.9431313   9.3951673  12.4261673  79.7991313
  10.0611673  12.8401673  79.7881313   2.3941673   9.4161673  83.7151313
   2.5661673   9.2061673  84.5441313   1.7391673   8.8821673  83.4991313
   2.3231673   9.3061673  83.8061313   8.6221673   3.3301673  87.2301313
   8.5271673   3.6491673  88.0361313   8.0291673   2.6911673  87.1921313
   8.5201673   3.2821673  87.3441313   3.1441673   9.3541673  86.3051313
   3.1971673  10.2011673  86.5071313   2.8591673   8.9841673  87.0421313
   3.1101673   9.4241673  86.4431313   9.3211673  10.0491673  85.4351313
   8.8071673   9.6371673  86.0061313   9.1951673  10.8931673  85.6161313
   9.2271673  10.1131673  85.5461313  12.5741673  10.4881673  75.5621313
  12.6931673  10.2011673  76.3771313  13.3811673  10.5091673  75.2321313
  12.7101673  10.4491673  75.6341313  10.4691673   7.0251673  75.1471313
  10.2491673   7.7561673  74.7251313  10.0211673   7.0761673  75.8941313
  10.3701673   7.1401673  75.1951313   2.0781673  10.2271673  79.1281313
   2.7911673  10.7221673  79.2181313   2.3001673   9.6601673  78.5021313
   2.2161673  10.2161673  79.0491313  14.9791673   6.2641673  87.1561313
  15.1941673   5.4641673  86.8801313  14.1291673   6.3241673  86.9671313
  14.8851673   6.1551673  87.0871313   6.6011673  13.9301673  81.4551313
   6.0781673  14.5641673  81.1621313   6.9111673  13.5661673  80.7261313
   6.5691673  13.9701673  81.3041313   9.1121673   3.7321673  81.9521313
   9.4561673   3.8841673  82.7391313   8.6591673   2.9941673  82.0651313
   9.0961673   3.6451673  82.0851313   3.5881673   2.9521673  76.4091313
   3.5861673   2.8351673  75.5441313   3.4071673   3.8001673  76.5011313
   3.5611673   3.0601673  76.2951313  12.6421673  15.3791673  87.9061313
  11.9711673  15.8931673  88.1241313  12.7051673  15.4791673  87.0421313
  12.5521673  15.4701673  87.8111313  10.4331673   5.0641673  84.5061313
   9.7711673   5.3921673  84.9691313  10.6201673   5.6981673  83.9371313
  10.3631673   5.2061673  84.4901313   4.6381673  16.1281673  85.5021313
   4.3611673  15.4871673  84.9791313   4.4301673  16.8541673  85.0641313
   4.5671673  16.1411673  85.3601313   8.6261673   3.0331673  78.0171313
   9.1161673   3.7501673  77.9401313   7.8361673   3.2941673  77.7541313
   8.5821673   3.1771673  77.9671313   5.2081673   4.5031673  83.7421313
   5.6881673   5.2021673  83.9501313   5.5811673   3.8561673  84.1931313
   5.3341673   4.5111673  83.8391313   7.3971673   7.6721673  76.0161313
   7.3891673   8.3941673  75.5261313   6.7581673   7.8071673  76.5931313
   7.3021673   7.7991673  76.0291313  12.3691673  11.5421673  79.9971313
  12.7251673  11.1921673  80.7121313  12.3611673  10.8811673  79.4271313
  12.4211673  11.3921673  80.0181313   8.4141673  14.6081673  83.8411313
   7.8111673  14.3121673  83.2841313   8.9591673  15.0601673  83.3321313
   8.4051673  14.6311673  83.6831313   8.4271673  11.4591673  83.2411313
   7.6301673  11.6831673  83.5151313   8.6851673  10.8651673  83.8261313
   8.3471673  11.4041673  83.3681313   2.3191673  16.2711673  77.6891313
   2.1721673  15.4951673  78.0601313   3.0081673  16.1241673  77.1741313
   2.3991673  16.1341673  77.6681313   4.6111673  15.7871673  76.0911313
   5.2331673  15.9501673  76.6811313   4.6471673  16.4781673  75.5591313
   4.7081673  15.9131673  76.1001313  11.6871673   9.4571673  88.0871313
  11.7421673   9.5821673  87.2251313  12.4401673   9.7771673  88.3891313
  11.8061673   9.5221673  88.0041313   7.4181673   9.2631673  87.6871313
   7.2631673   9.8731673  88.2911313   7.9521673   8.7051673  88.0931313
   7.4741673   9.2711673  87.8361313   5.8021673   7.6631673  78.3451313
   5.8611673   8.3131673  78.9241313   5.6131673   6.9671673  78.8361313
   5.7831673   7.6561673  78.5031313  11.0281673  11.9921673  84.2141313
  10.5491673  12.2901673  83.5481313  10.6721673  11.2161673  84.3921313
  10.9051673  11.9211673  84.1421313   5.0251673   9.7101673  82.7761313
   4.1781673   9.5161673  82.8571313   5.3491673   9.5451673  83.5691313
   4.9471673   9.6571673  82.9051313   1.7771673  16.4401673  73.6621313
   2.2161673  15.7431673  73.9501313   1.9841673  17.0641673  74.2351313
   1.8731673  16.4291673  73.7891313   2.1031673   4.5741673  81.8271313
   2.9491673   4.3841673  81.9251313   1.7331673   3.7971673  81.6891313
   2.1731673   4.4311673  81.8211313  14.7201673  16.1581673  76.1541313
  15.4141673  15.6911673  75.9061313  14.1811673  15.5601673  76.4911313
  14.7431673  16.0001673  76.1671313  11.9591673   8.9341673  85.3331313
  11.9521673   8.1581673  85.7311313  11.1181673   9.1681673  85.3261313
  11.8341673   8.8541673  85.3911313  13.2151673   9.0051673  82.7701313
  12.9291673   9.4061673  83.4901313  14.0751673   8.9431673  82.8971313
  13.3001673   9.0551673  82.8951313   2.9041673   5.8071673  76.6781313
   3.1761673   6.6331673  76.7451313   2.0411673   5.8821673  76.5821313
   2.8171673   5.9401673  76.6731313  14.3461673  14.6381673  83.2991313
  14.6361673  14.8951673  82.5181313  15.0411673  14.7341673  83.8181313
  14.4921673  14.6901673  83.2601313  10.9511673  13.2411673  75.2811313
  11.2851673  12.4351673  75.3161313  10.1961673  13.1691673  75.7111313
  10.8891673  13.1111673  75.3501313  11.4331673   5.0751673  80.9401313
  10.6881673   4.7521673  81.2581313  11.4351673   5.9011673  81.2201313
  11.3231673   5.1491673  81.0281313  13.8731673  11.0351673  88.6921313
  14.5011673  10.4861673  88.4361313  13.8121673  11.6001673  88.0301313
  13.9571673  11.0381673  88.5561313   8.3251673  11.1161673  74.6841313
   9.0091673  10.6021673  74.5151313   7.9081673  11.1621673  73.9191313
   8.3641673  11.0471673  74.5461313   3.0071673  12.2661673  85.9881313
   2.7091673  12.8581673  86.5551313   3.0621673  12.7081673  85.2391313
   2.9711673  12.4191673  85.9611313   5.5231673   8.6891673  85.4791313
   5.9991673   9.0631673  86.1071313   4.7001673   8.8231673  85.7381313
   5.4721673   8.7641673  85.6101313   2.2331673   4.2921673  88.2201313
   2.3941673   3.5481673  88.6471313   2.1881673   4.0431673  87.3851313
   2.2501673   4.1451673  88.1601313   4.7871673  16.0821673  80.7071313
   5.3331673  16.7611673  80.7611313   4.4371673  16.1641673  79.9121313
   4.8161673  16.1951673  80.5971313   2.9701673  14.3101673  84.0961313
   2.3461673  14.8921673  83.9141313   3.2181673  14.0241673  83.3101313
   2.9141673  14.3541673  83.9531313  13.0511673   5.6401673  74.9281313
  13.4291673   6.3171673  74.5281313  12.2091673   5.8641673  74.9591313
  12.9821673   5.7731673  74.8731313   4.5641673   9.0861673  74.0111313
   3.7591673   8.9091673  73.7261313   4.5311673   9.9371673  74.2031313
   4.4401673   9.1851673  73.9981313   8.1981673   5.7921673  86.0511313
   8.5001673   6.2121673  86.7541313   8.2341673   4.9521673  86.2831313
   8.2481673   5.7301673  86.1891313  10.7461673   5.2391673  78.3031313
  10.9531673   5.0381673  79.1271313  11.5021673   5.5071673  77.9611313
  10.8881673   5.2491673  78.3741313  12.2111673   9.2661673  78.1571313
  12.6871673   8.5371673  78.1091313  11.3901673   8.9801673  78.0811313
  12.1601673   9.1161673  78.1381313   8.4271673  10.4331673  80.5121313
   8.5031673  10.7741673  81.3111313   8.5961673   9.5861673  80.6331313
   8.4631673  10.3581673  80.6481313   5.9491673   9.7071673  80.0771313
   5.6511673   9.3921673  80.8341313   6.6441673  10.1801673  80.3121313
   6.0081673   9.7301673  80.2241313   6.1711673  13.8251673  88.1041313
   6.8581673  13.7111673  88.6291313   6.3051673  14.6161673  87.7601313
   6.2921673  13.9251673  88.1311313   8.8601673   7.0991673  88.4911313
   8.6051673   6.3801673  88.9131313   9.6811673   7.2151673  88.7611313
   8.9441673   7.0101673  88.5931313   9.8781673  16.6631673  82.6071313
   9.4271673  17.3061673  82.9861313  10.5861673  16.5841673  83.1121313
   9.9161673  16.7461673  82.7381313   6.5791673  11.7531673  85.5371313
   5.8851673  12.1551673  85.8801313   7.2561673  12.1861673  85.8761313
   6.5761673  11.8761673  85.6381313  12.9811673   6.3791673  77.5991313
  13.0841673   6.3211673  76.7351313  13.7221673   6.0471673  77.9171313
  13.1061673   6.3221673  77.5181313   6.9011673  13.3441673  78.7061313
   6.6961673  14.1771673  78.5471313   6.1261673  12.9621673  78.8281313
   6.7561673  13.4111673  78.7011313  12.0831673   6.5251673  86.9551313
  12.0811673   5.6621673  87.0791313  12.1501673   6.8491673  87.7621313
  12.0931673   6.4451673  87.0921313   2.2631673  13.6061673  75.1151313
   2.7041673  13.6861673  75.8631313   1.4581673  13.3901673  75.3731313
   2.2091673  13.5861673  75.2641313  10.5541673   2.0311673  84.3911313
  11.4091673   2.1301673  84.5361313  10.1851673   2.5841673  84.9561313
  10.6261673   2.1281673  84.4961313  10.8581673   7.3111673  82.8821313
  11.5241673   7.8521673  83.0421313  10.5131673   7.6221673  82.1431313
  10.9051673   7.4371673  82.7971313  11.1711673  15.3771673  78.6891313
  10.9971673  14.7231673  79.2391313  11.8841673  15.1061673  78.2661313
  11.2511673  15.2401673  78.7081313   2.4111673  10.9211673  74.4591313
   1.5931673  10.6531673  74.5991313   2.3831673  11.7731673  74.6441313
   2.2861673  11.0081673  74.5071313   8.8461673  12.8301673  86.3801313
   9.0521673  13.1311673  87.1721313   8.7851673  13.5521673  85.8951313
   8.8671673  12.9811673  86.4251313  13.6581673  11.4691673  85.8381313
  13.6261673  10.6071673  85.7031313  12.9651673  11.7711673  85.4041313
  13.5511673  11.3861673  85.7541313  11.7631673  14.7291673  84.6351313
  12.2901673  14.6461673  83.9441313  11.3721673  13.9511673  84.6891313
  11.7831673  14.6021673  84.5411313   7.6361673   5.9811673  81.3361313
   8.1871673   5.3741673  81.6361313   7.2111673   6.2441673  82.0511313
   7.6551673   5.9301673  81.4851313   9.6061673   7.8121673  77.8981313
   9.6741673   6.9621673  78.0791313   8.7831673   7.8981673  77.6201313
   9.4941673   7.6991673  77.8841313   3.5251673   8.7031673  76.8361313
   3.6251673   8.8421673  75.9811313   4.3431673   8.6431673  77.1321313
   3.6601673   8.7141673  76.7531313  12.6851673  16.7671673  74.3161313
  13.3221673  16.6331673  74.8971313  12.3441673  15.9731673  74.1991313
  12.7291673  16.6301673  74.3841313   8.7601673  13.0321673  76.6381313
   8.5091673  12.9041673  77.4641313   8.4431673  12.3371673  76.2171313
   8.6761673  12.9111673  76.6981313  13.4041673   4.6901673  84.7581313
  12.5711673   4.9401673  84.6861313  13.3481673   3.8501673  84.9871313
  13.2731673   4.6031673  84.7811313   5.6461673  11.2401673  76.0681313
   6.3631673  10.8931673  75.7121313   5.6121673  12.0401673  75.7201313
   5.7471673  11.3071673  75.9641313   6.8641673   6.7971673  64.9778903
   6.3401673   7.3931673  65.3408903   7.2611673   6.4291673  65.6618903
   6.8451673   6.8311673  65.1328903  13.0081673  14.2381673  57.9488903
  13.7091673  13.7191673  57.9448903  12.4211673  13.7931673  57.4798903
  13.0251673  14.0951673  57.8788903   9.5351673   7.8641673  61.6538903
   9.6151673   7.8681673  60.7848903   8.9511673   7.2321673  61.8028903
   9.4601673   7.7711673  61.5478903   3.2471673  11.1971673  71.7558903
   3.0111673  11.1941673  72.5958903   2.4991673  11.0491673  71.3318903
   3.1011673  11.1741673  71.8168903   2.6271673   3.8031673  66.2378903
   3.3051673   3.8211673  65.6888903   2.5821673   2.9671673  66.4828903
   2.7201673   3.6821673  66.1928903   3.2291673  14.3891673  69.0188903
   3.3671673  15.1491673  68.6118903   4.0201673  14.0241673  69.0458903
   3.3661673  14.4481673  68.9628903   4.3241673  12.2741673  63.5238903
   4.6721673  11.4751673  63.5538903   4.9891673  12.7781673  63.2688903
   4.4741673  12.2301673  63.4908903   4.3811673  11.7231673  59.7348903
   4.7121673  11.0791673  60.2208903   4.6211673  11.5121673  58.9238903
   4.4651673  11.5971673  59.6868903   6.3491673   5.8541673  71.0738903
   5.5011673   5.7551673  70.8958903   6.3781673   6.5991673  71.5278903
   6.2281673   5.9501673  71.1148903   8.3691673   3.4551673  54.7018903
   7.9191673   4.1361673  55.0088903   8.4831673   2.9511673  55.4048903
   8.3201673   3.4811673  54.8508903   2.3251673  13.5081673  59.2838903
   1.7461673  13.2331673  59.8758903   2.9491673  12.8991673  59.3088903
   2.3321673  13.3781673  59.3748903   8.4681673  15.7961673  56.8058903
   9.1951673  16.2681673  56.9078903   8.6971673  15.0021673  57.0858903
   8.6101673  15.7491673  56.8628903   6.6361673  16.1881673  58.7958903
   6.8501673  16.7151673  59.4578903   7.4031673  16.0141673  58.4168903
   6.7811673  16.2401673  58.8378903   2.9101673   2.9041673  73.6928903
   3.0271673   2.4501673  72.9568903   3.1981673   3.7021673  73.4898903
   2.9701673   2.9551673  73.5538903  13.7631673   3.4281673  60.9968903
  13.4171673   4.1061673  61.4228903  13.1271673   2.8301673  61.0128903
  13.6181673   3.4401673  61.0618903   9.0751673  16.1981673  67.1008903
   9.8191673  16.6541673  67.0908903   8.9541673  15.9841673  66.2638903
   9.1671673  16.2341673  66.9758903   2.0791673  15.6731673  62.5308903
   2.9231673  15.7771673  62.3358903   1.7821673  16.4911673  62.5988903
   2.1601673  15.8091673  62.5118903   5.8861673   5.0701673  60.6178903
   6.1731673   4.8381673  59.8278903   6.6181673   5.1491673  61.0868903
   6.0361673   5.0471673  60.5708903   6.6081673   5.4091673  55.7388903
   6.8891673   6.1971673  55.9878903   5.8321673   5.5741673  55.3758903
   6.5351673   5.5501673  55.7218903  10.6491673  17.3831673  57.2058903
  11.3141673  17.2351673  56.6608903  11.0091673  17.3001673  57.9958903
  10.8011673  17.3491673  57.2418903   8.3291673  13.3831673  70.8048903
   8.2951673  13.7651673  71.5888903   9.1831673  13.3411673  70.6338903
   8.4501673  13.4331673  70.8958903   5.4671673  13.5801673  55.5548903
   5.2861673  14.1251673  56.2118903   6.2331673  13.8701673  55.2538903
   5.5531673  13.7041673  55.6078903   6.2321673   3.8521673  57.9228903
   5.7241673   3.1901673  57.6688903   6.2841673   4.3561673  57.2128903
   6.1651673   3.8291673  57.7808903   6.7811673  16.5471673  68.3028903
   7.5491673  16.4671673  67.8968903   6.1981673  16.4261673  67.6648903
   6.8081673  16.5171673  68.1488903  13.0581673  17.1501673  61.2038903
  12.6031673  17.8671673  61.4048903  12.4441673  16.5791673  60.9618903
  12.9001673  17.1721673  61.1978903   4.8301673   3.1601673  62.3358903
   4.9041673   3.7281673  61.6778903   4.9511673   3.6521673  63.0458903
   4.8581673   3.3171673  62.3438903  10.0551673  12.9951673  60.7478903
  10.7561673  12.5131673  60.9368903   9.3951673  12.4261673  60.7928903
  10.0611673  12.8401673  60.7818903   2.3941673   9.4161673  64.7088903
   2.5661673   9.2061673  65.5378903   1.7391673   8.8821673  64.4928903
   2.3231673   9.3061673  64.7998903   8.6221673   3.3301673  68.2238903
   8.5271673   3.6491673  69.0298903   8.0291673   2.6911673  68.1858903
   8.5201673   3.2821673  68.3378903   3.1441673   9.3541673  67.2988903
   3.1971673  10.2011673  67.5008903   2.8591673   8.9841673  68.0358903
   3.1101673   9.4241673  67.4368903   9.3211673  10.0491673  66.4288903
   8.8071673   9.6371673  66.9998903   9.1951673  10.8931673  66.6098903
   9.2271673  10.1131673  66.5398903  12.3421673   3.5101673  69.3678903
  13.1141673   3.2851673  69.7048903  11.8671673   3.7271673  70.0678903
  12.3861673   3.5091673  69.5208903  12.5741673  10.4881673  56.5558903
  12.6931673  10.2011673  57.3708903  13.3811673  10.5091673  56.2258903
  12.7101673  10.4491673  56.6278903  14.8081673  14.9971673  70.8098903
  14.1261673  15.3071673  70.3628903  14.4391673  14.5391673  71.4548903
  14.6521673  14.9751673  70.8388903  10.4691673   7.0251673  56.1408903
  10.2491673   7.7561673  55.7188903  10.0211673   7.0761673  56.8878903
  10.3701673   7.1401673  56.1888903   2.0781673  10.2271673  60.1218903
   2.7911673  10.7221673  60.2118903   2.3001673   9.6601673  59.4958903
   2.2161673  10.2161673  60.0428903   3.8811673   5.5801673  73.5378903
   3.3971673   6.1571673  73.9798903   3.8531673   5.8751673  72.7168903
   3.8051673   5.7091673  73.4818903  14.9791673   6.2641673  68.1498903
  15.1941673   5.4641673  67.8738903  14.1291673   6.3241673  67.9608903
  14.8851673   6.1551673  68.0808903   6.6011673  13.9301673  62.4488903
   6.0781673  14.5641673  62.1558903   6.9111673  13.5661673  61.7198903
   6.5691673  13.9701673  62.2978903   9.1121673   3.7321673  62.9458903
   9.4561673   3.8841673  63.7328903   8.6591673   2.9941673  63.0588903
   9.0961673   3.6451673  63.0788903   3.5881673   2.9521673  57.4028903
   3.5861673   2.8351673  56.5378903   3.4071673   3.8001673  57.4948903
   3.5611673   3.0601673  57.2888903  12.6421673  15.3791673  68.8998903
  11.9711673  15.8931673  69.1178903  12.7051673  15.4791673  68.0358903
  12.5521673  15.4701673  68.8048903  10.4331673   5.0641673  65.4998903
   9.7711673   5.3921673  65.9628903  10.6201673   5.6981673  64.9308903
  10.3631673   5.2061673  65.4838903   4.6381673  16.1281673  66.4958903
   4.3611673  15.4871673  65.9728903   4.4301673  16.8541673  66.0578903
   4.5671673  16.1411673  66.3538903   8.6261673   3.0331673  59.0108903
   9.1161673   3.7501673  58.9338903   7.8361673   3.2941673  58.7478903
   8.5821673   3.1771673  58.9608903   9.9401673  10.9111673  70.9208903
  10.4241673  11.6291673  71.0188903  10.3341673  10.4841673  70.2698903
  10.0701673  10.9541673  70.8388903   4.2361673  13.7561673  72.0978903
   4.5901673  13.5781673  72.8748903   3.8001673  13.0271673  71.8988903
   4.2241673  13.6221673  72.1838903   5.2081673   4.5031673  64.7358903
   5.6881673   5.2021673  64.9438903   5.5811673   3.8561673  65.1868903
   5.3341673   4.5111673  64.8328903   7.3971673   7.6721673  57.0098903
   7.3891673   8.3941673  56.5198903   6.7581673   7.8071673  57.5868903
   7.3021673   7.7991673  57.0228903  12.3691673  11.5421673  60.9908903
  12.7251673  11.1921673  61.7058903  12.3611673  10.8811673  60.4208903
  12.4211673  11.3921673  61.0118903   8.4141673  14.6081673  64.8348903
   7.8111673  14.3121673  64.2778903   8.9591673  15.0601673  64.3258903
   8.4051673  14.6311673  64.6768903   8.4271673  11.4591673  64.2348903
   7.6301673  11.6831673  64.5088903   8.6851673  10.8651673  64.8198903
   8.3471673  11.4041673  64.3618903   2.3191673  16.2711673  58.6828903
   2.1721673  15.4951673  59.0538903   3.0081673  16.1241673  58.1678903
   2.3991673  16.1341673  58.6618903   4.6111673  15.7871673  57.0848903
   5.2331673  15.9501673  57.6748903   4.6471673  16.4781673  56.5528903
   4.7081673  15.9131673  57.0938903  11.6871673   9.4571673  69.0808903
  11.7421673   9.5821673  68.2188903  12.4401673   9.7771673  69.3828903
  11.8061673   9.5221673  68.9978903   7.8781673  14.8061673  73.3578903
   8.0421673  15.0891673  74.1668903   8.1411673  15.4671673  72.8528903
   7.9411673  14.9461673  73.4028903   7.4181673   9.2631673  68.6808903
   7.2631673   9.8731673  69.2848903   7.9521673   8.7051673  69.0868903
   7.4741673   9.2711673  68.8298903   5.8021673   7.6631673  59.3388903
   5.8611673   8.3131673  59.9178903   5.6131673   6.9671673  59.8298903
   5.7831673   7.6561673  59.4968903  11.0281673  11.9921673  65.2078903
  10.5491673  12.2901673  64.5418903  10.6721673  11.2161673  65.3858903
  10.9051673  11.9211673  65.1358903   5.0251673   9.7101673  63.7698903
   4.1781673   9.5161673  63.8508903   5.3491673   9.5451673  64.5628903
   4.9471673   9.6571673  63.8988903   1.7771673  16.4401673  54.6558903
   2.2161673  15.7431673  54.9438903   1.9841673  17.0641673  55.2288903
   1.8731673  16.4291673  54.7828903   2.1031673   4.5741673  62.8208903
   2.9491673   4.3841673  62.9188903   1.7331673   3.7971673  62.6828903
   2.1731673   4.4311673  62.8148903  14.7201673  16.1581673  57.1478903
  15.4141673  15.6911673  56.8998903  14.1811673  15.5601673  57.4848903
  14.7431673  16.0001673  57.1608903  11.9591673   8.9341673  66.3268903
  11.9521673   8.1581673  66.7248903  11.1181673   9.1681673  66.3198903
  11.8341673   8.8541673  66.3848903  13.2151673   9.0051673  63.7638903
  12.9291673   9.4061673  64.4838903  14.0751673   8.9431673  63.8908903
  13.3001673   9.0551673  63.8888903   2.9041673   5.8071673  57.6718903
   3.1761673   6.6331673  57.7388903   2.0411673   5.8821673  57.5758903
   2.8171673   5.9401673  57.6668903  10.8771673   2.9291673  72.3038903
  10.3521673   3.3881673  72.8278903  10.5161673   2.1341673  72.2978903
  10.7461673   2.8791673  72.3798903  14.3461673  14.6381673  64.2928903
  14.6361673  14.8951673  63.5118903  15.0411673  14.7341673  64.8118903
  14.4921673  14.6901673  64.2538903   9.3691673   6.4981673  72.3798903
   9.4421673   6.6021673  73.2428903   8.7351673   7.0561673  72.1588903
   9.2861673   6.5961673  72.4748903  11.6371673   6.8171673  70.7448903
  11.9561673   7.6031673  70.9478903  11.2671673   6.5471673  71.4878903
  11.6301673   6.8931673  70.8848903  10.9511673  13.2411673  56.2748903
  11.2851673  12.4351673  56.3098903  10.1961673  13.1691673  56.7048903
  10.8891673  13.1111673  56.3438903  11.4331673   5.0751673  61.9338903
  10.6881673   4.7521673  62.2518903  11.4351673   5.9011673  62.2138903
  11.3231673   5.1491673  62.0218903  14.3351673   7.3591673  73.4798903
  14.2831673   7.0181673  72.6788903  15.0721673   7.8261673  73.4578903
  14.4361673   7.3781673  73.3578903  13.8731673  11.0351673  69.6858903
  14.5011673  10.4861673  69.4298903  13.8121673  11.6001673  69.0238903
  13.9571673  11.0381673  69.5498903   8.3251673  11.1161673  55.6778903
   9.0091673  10.6021673  55.5088903   7.9081673  11.1621673  54.9128903
   8.3641673  11.0471673  55.5398903   3.0071673  12.2661673  66.9818903
   2.7091673  12.8581673  67.5488903   3.0621673  12.7081673  66.2328903
   2.9711673  12.4191673  66.9548903   5.5231673   8.6891673  66.4728903
   5.9991673   9.0631673  67.1008903   4.7001673   8.8231673  66.7318903
   5.4721673   8.7641673  66.6038903   2.2331673   4.2921673  69.2138903
   2.3941673   3.5481673  69.6408903   2.1881673   4.0431673  68.3788903
   2.2501673   4.1451673  69.1538903   4.7871673  16.0821673  61.7008903
   5.3331673  16.7611673  61.7548903   4.4371673  16.1641673  60.9058903
   4.8161673  16.1951673  61.5908903   2.9701673  14.3101673  65.0898903
   2.3461673  14.8921673  64.9078903   3.2181673  14.0241673  64.3038903
   2.9141673  14.3541673  64.9468903   7.2791673  10.9441673  72.0788903
   8.0361673  11.2301673  71.7528903   6.7321673  10.9961673  71.4008903
   7.3101673  10.9941673  71.9298903  11.1881673  13.4941673  70.5828903
  11.5341673  13.7641673  71.3368903  11.4821673  14.0761673  70.0028903
  11.2831673  13.6201673  70.6088903  13.0511673   5.6401673  55.9218903
  13.4291673   6.3171673  55.5218903  12.2091673   5.8641673  55.9528903
  12.9821673   5.7731673  55.8668903   4.5641673   9.0861673  55.0048903
   3.7591673   8.9091673  54.7198903   4.5311673   9.9371673  55.1968903
   4.4401673   9.1851673  54.9918903   8.5101673   4.2551673  70.7468903
   7.8621673   4.7251673  71.0948903   9.0751673   4.1661673  71.4058903
   8.4981673   4.3111673  70.8958903   8.1981673   5.7921673  67.0448903
   8.5001673   6.2121673  67.7478903   8.2341673   4.9521673  67.2768903
   8.2481673   5.7301673  67.1828903   5.6231673  15.9591673  70.9698903
   6.1011673  15.3591673  70.5538903   5.2721673  15.5161673  71.6348903
   5.6421673  15.8051673  71.0068903  10.7461673   5.2391673  59.2968903
  10.9531673   5.0381673  60.1208903  11.5021673   5.5071673  58.9548903
  10.8881673   5.2491673  59.3678903  12.2111673   9.2661673  59.1508903
  12.6871673   8.5371673  59.1028903  11.3901673   8.9801673  59.0748903
  12.1601673   9.1161673  59.1318903   5.6821673  11.1781673  69.9898903
   4.8871673  11.1141673  70.3408903   5.7531673  12.0251673  69.7948903
   5.5751673  11.2931673  70.0128903   8.4271673  10.4331673  61.5058903
   8.5031673  10.7741673  62.3048903   8.5961673   9.5861673  61.6268903
   8.4631673  10.3581673  61.6418903   5.9491673   9.7071673  61.0708903
   5.6511673   9.3921673  61.8278903   6.6441673  10.1801673  61.3058903
   6.0081673   9.7301673  61.2178903   6.1711673  13.8251673  69.0978903
   6.8581673  13.7111673  69.6228903   6.3051673  14.6161673  68.7538903
   6.2921673  13.9251673  69.1248903  14.3471673   6.4341673  70.9088903
  13.4921673   6.3121673  71.0348903  14.5001673   6.0391673  70.1458903
  14.2431673   6.3571673  70.8148903   8.8601673   7.0991673  69.4848903
   8.6051673   6.3801673  69.9068903   9.6811673   7.2151673  69.7548903
   8.9441673   7.0101673  69.5868903   6.7941673   8.2891673  72.6718903
   7.1171673   8.9751673  72.2398903   6.0901673   8.6121673  73.0738903
   6.7371673   8.4381673  72.6668903   9.8781673  16.6631673  63.6008903
   9.4271673  17.3061673  63.9798903  10.5861673  16.5841673  64.1058903
   9.9161673  16.7461673  63.7318903   6.5791673  11.7531673  66.5308903
   5.8851673  12.1551673  66.8738903   7.2561673  12.1861673  66.8698903
   6.5761673  11.8761673  66.6318903  11.9561673  14.3461673  73.1108903
  12.7321673  13.9561673  73.1938903  11.4871673  14.0101673  73.7658903
  12.0011673  14.2391673  73.2198903  12.9811673   6.3791673  58.5928903
  13.0841673   6.3211673  57.7288903  13.7221673   6.0471673  58.9108903
  13.1061673   6.3221673  58.5118903   6.9011673  13.3441673  59.6998903
   6.6961673  14.1771673  59.5408903   6.1261673  12.9621673  59.8218903
   6.7561673  13.4111673  59.6948903  12.0831673   6.5251673  67.9488903
  12.0811673   5.6621673  68.0728903  12.1501673   6.8491673  68.7558903
  12.0931673   6.4451673  68.0858903   2.2631673  13.6061673  56.1088903
   2.7041673  13.6861673  56.8568903   1.4581673  13.3901673  56.3668903
   2.2091673  13.5861673  56.2578903  10.5541673   2.0311673  65.3848903
  11.4091673   2.1301673  65.5298903  10.1851673   2.5841673  65.9498903
  10.6261673   2.1281673  65.4898903  10.8581673   7.3111673  63.8758903
  11.5241673   7.8521673  64.0358903  10.5131673   7.6221673  63.1368903
  10.9051673   7.4371673  63.7908903  11.1711673  15.3771673  59.6828903
  10.9971673  14.7231673  60.2328903  11.8841673  15.1061673  59.2598903
  11.2511673  15.2401673  59.7018903   2.4111673  10.9211673  55.4528903
   1.5931673  10.6531673  55.5928903   2.3831673  11.7731673  55.6378903
   2.2861673  11.0081673  55.5008903   8.8461673  12.8301673  67.3738903
   9.0521673  13.1311673  68.1658903   8.7851673  13.5521673  66.8888903
   8.8671673  12.9811673  67.4188903   8.3801673  17.0441673  71.6198903
   7.6271673  17.0261673  71.1788903   8.5481673  17.8961673  71.7038903
   8.2941673  17.1671673  71.5668903   3.6171673   6.3111673  70.7898903
   3.2951673   5.7351673  70.2198903   3.2581673   7.0661673  70.5438903
   3.5171673   6.3371673  70.6698903  13.6581673  11.4691673  66.8318903
  13.6261673  10.6071673  66.6968903  12.9651673  11.7711673  66.3978903
  13.5511673  11.3861673  66.7478903   2.0521673  16.6671673  71.0378903
   2.0931673  16.7931673  71.9008903   2.7031673  16.1071673  70.8818903
   2.1541673  16.6031673  71.1428903  11.7631673  14.7291673  65.6288903
  12.2901673  14.6461673  64.9378903  11.3721673  13.9511673  65.6828903
  11.7831673  14.6021673  65.5348903   7.6361673   5.9811673  62.3298903
   8.1871673   5.3741673  62.6298903   7.2111673   6.2441673  63.0448903
   7.6551673   5.9301673  62.4788903   9.6061673   7.8121673  58.8918903
   9.6741673   6.9621673  59.0728903   8.7831673   7.8981673  58.6138903
   9.4941673   7.6991673  58.8778903   3.5251673   8.7031673  57.8298903
   3.6251673   8.8421673  56.9748903   4.3431673   8.6431673  58.1258903
   3.6601673   8.7141673  57.7468903  12.6851673  16.7671673  55.3098903
  13.3221673  16.6331673  55.8908903  12.3441673  15.9731673  55.1928903
  12.7291673  16.6301673  55.3778903  12.8801673   9.1851673  72.0428903
  13.5141673   9.0151673  72.6168903  13.2971673   9.5881673  71.3908903
  13.0351673   9.2201673  72.0318903   8.7601673  13.0321673  57.6318903
   8.5091673  12.9041673  58.4578903   8.4431673  12.3371673  57.2108903
   8.6761673  12.9111673  57.6918903  13.5051673   3.7491673  72.7808903
  13.3091673   4.3931673  73.3358903  12.7831673   3.2591673  72.7728903
  13.3701673   3.7721673  72.8618903  13.4041673   4.6901673  65.7518903
  12.5711673   4.9401673  65.6798903  13.3481673   3.8501673  65.9808903
  13.2731673   4.6031673  65.7748903  10.2911673   9.2961673  73.3978903
  11.1621673   9.2601673  73.3618903  10.0721673   9.7161673  72.6658903
  10.3881673   9.3521673  73.2848903   5.6461673  11.2401673  57.0618903
   6.3631673  10.8931673  56.7058903   5.6121673  12.0401673  56.7138903
   5.7471673  11.3071673  56.9578903   6.8641673   6.7971673  45.9716493
   6.3401673   7.3931673  46.3346493   7.2611673   6.4291673  46.6556493
   6.8451673   6.8311673  46.1266493  13.0081673  14.2381673  38.9426493
  13.7091673  13.7191673  38.9386493  12.4211673  13.7931673  38.4736493
  13.0251673  14.0951673  38.8726493   9.5351673   7.8641673  42.6476493
   9.6151673   7.8681673  41.7786493   8.9511673   7.2321673  42.7966493
   9.4601673   7.7711673  42.5416493   3.2471673  11.1971673  52.7496493
   3.0111673  11.1941673  53.5896493   2.4991673  11.0491673  52.3256493
   3.1011673  11.1741673  52.8106493   2.6271673   3.8031673  47.2316493
   3.3051673   3.8211673  46.6826493   2.5821673   2.9671673  47.4766493
   2.7201673   3.6821673  47.1866493   3.2291673  14.3891673  50.0126493
   3.3671673  15.1491673  49.6056493   4.0201673  14.0241673  50.0396493
   3.3661673  14.4481673  49.9566493   4.3241673  12.2741673  44.5176493
   4.6721673  11.4751673  44.5476493   4.9891673  12.7781673  44.2626493
   4.4741673  12.2301673  44.4846493   4.3811673  11.7231673  40.7286493
   4.7121673  11.0791673  41.2146493   4.6211673  11.5121673  39.9176493
   4.4651673  11.5971673  40.6806493   6.3491673   5.8541673  52.0676493
   5.5011673   5.7551673  51.8896493   6.3781673   6.5991673  52.5216493
   6.2281673   5.9501673  52.1086493   8.3691673   3.4551673  35.6956493
   7.9191673   4.1361673  36.0026493   8.4831673   2.9511673  36.3986493
   8.3201673   3.4811673  35.8446493   2.3251673  13.5081673  40.2776493
   1.7461673  13.2331673  40.8696493   2.9491673  12.8991673  40.3026493
   2.3321673  13.3781673  40.3686493   8.4681673  15.7961673  37.7996493
   9.1951673  16.2681673  37.9016493   8.6971673  15.0021673  38.0796493
   8.6101673  15.7491673  37.8566493   6.6361673  16.1881673  39.7896493
   6.8501673  16.7151673  40.4516493   7.4031673  16.0141673  39.4106493
   6.7811673  16.2401673  39.8316493   2.9101673   2.9041673  54.6866493
   3.0271673   2.4501673  53.9506493   3.1981673   3.7021673  54.4836493
   2.9701673   2.9551673  54.5476493  13.7631673   3.4281673  41.9906493
  13.4171673   4.1061673  42.4166493  13.1271673   2.8301673  42.0066493
  13.6181673   3.4401673  42.0556493   9.0751673  16.1981673  48.0946493
   9.8191673  16.6541673  48.0846493   8.9541673  15.9841673  47.2576493
   9.1671673  16.2341673  47.9696493   2.0791673  15.6731673  43.5246493
   2.9231673  15.7771673  43.3296493   1.7821673  16.4911673  43.5926493
   2.1601673  15.8091673  43.5056493   5.8861673   5.0701673  41.6116493
   6.1731673   4.8381673  40.8216493   6.6181673   5.1491673  42.0806493
   6.0361673   5.0471673  41.5646493   6.6081673   5.4091673  36.7326493
   6.8891673   6.1971673  36.9816493   5.8321673   5.5741673  36.3696493
   6.5351673   5.5501673  36.7156493  10.6491673  17.3831673  38.1996493
  11.3141673  17.2351673  37.6546493  11.0091673  17.3001673  38.9896493
  10.8011673  17.3491673  38.2356493   8.3291673  13.3831673  51.7986493
   8.2951673  13.7651673  52.5826493   9.1831673  13.3411673  51.6276493
   8.4501673  13.4331673  51.8896493   5.4671673  13.5801673  36.5486493
   5.2861673  14.1251673  37.2056493   6.2331673  13.8701673  36.2476493
   5.5531673  13.7041673  36.6016493   6.2321673   3.8521673  38.9166493
   5.7241673   3.1901673  38.6626493   6.2841673   4.3561673  38.2066493
   6.1651673   3.8291673  38.7746493   6.7811673  16.5471673  49.2966493
   7.5491673  16.4671673  48.8906493   6.1981673  16.4261673  48.6586493
   6.8081673  16.5171673  49.1426493  13.0581673  17.1501673  42.1976493
  12.6031673  17.8671673  42.3986493  12.4441673  16.5791673  41.9556493
  12.9001673  17.1721673  42.1916493   4.8301673   3.1601673  43.3296493
   4.9041673   3.7281673  42.6716493   4.9511673   3.6521673  44.0396493
   4.8581673   3.3171673  43.3376493  10.0551673  12.9951673  41.7416493
  10.7561673  12.5131673  41.9306493   9.3951673  12.4261673  41.7866493
  10.0611673  12.8401673  41.7756493   2.3941673   9.4161673  45.7026493
   2.5661673   9.2061673  46.5316493   1.7391673   8.8821673  45.4866493
   2.3231673   9.3061673  45.7936493   8.6221673   3.3301673  49.2176493
   8.5271673   3.6491673  50.0236493   8.0291673   2.6911673  49.1796493
   8.5201673   3.2821673  49.3316493   3.1441673   9.3541673  48.2926493
   3.1971673  10.2011673  48.4946493   2.8591673   8.9841673  49.0296493
   3.1101673   9.4241673  48.4306493   9.3211673  10.0491673  47.4226493
   8.8071673   9.6371673  47.9936493   9.1951673  10.8931673  47.6036493
   9.2271673  10.1131673  47.5336493  12.3421673   3.5101673  50.3616493
  13.1141673   3.2851673  50.6986493  11.8671673   3.7271673  51.0616493
  12.3861673   3.5091673  50.5146493  12.5741673  10.4881673  37.5496493
  12.6931673  10.2011673  38.3646493  13.3811673  10.5091673  37.2196493
  12.7101673  10.4491673  37.6216493  14.8081673  14.9971673  51.8036493
  14.1261673  15.3071673  51.3566493  14.4391673  14.5391673  52.4486493
  14.6521673  14.9751673  51.8326493  10.4691673   7.0251673  37.1346493
  10.2491673   7.7561673  36.7126493  10.0211673   7.0761673  37.8816493
  10.3701673   7.1401673  37.1826493   2.0781673  10.2271673  41.1156493
   2.7911673  10.7221673  41.2056493   2.3001673   9.6601673  40.4896493
   2.2161673  10.2161673  41.0366493   3.8811673   5.5801673  54.5316493
   3.3971673   6.1571673  54.9736493   3.8531673   5.8751673  53.7106493
   3.8051673   5.7091673  54.4756493  14.9791673   6.2641673  49.1436493
  15.1941673   5.4641673  48.8676493  14.1291673   6.3241673  48.9546493
  14.8851673   6.1551673  49.0746493   6.6011673  13.9301673  43.4426493
   6.0781673  14.5641673  43.1496493   6.9111673  13.5661673  42.7136493
   6.5691673  13.9701673  43.2916493   9.1121673   3.7321673  43.9396493
   9.4561673   3.8841673  44.7266493   8.6591673   2.9941673  44.0526493
   9.0961673   3.6451673  44.0726493   3.5881673   2.9521673  38.3966493
   3.5861673   2.8351673  37.5316493   3.4071673   3.8001673  38.4886493
   3.5611673   3.0601673  38.2826493  12.6421673  15.3791673  49.8936493
  11.9711673  15.8931673  50.1116493  12.7051673  15.4791673  49.0296493
  12.5521673  15.4701673  49.7986493  10.4331673   5.0641673  46.4936493
   9.7711673   5.3921673  46.9566493  10.6201673   5.6981673  45.9246493
  10.3631673   5.2061673  46.4776493   4.6381673  16.1281673  47.4896493
   4.3611673  15.4871673  46.9666493   4.4301673  16.8541673  47.0516493
   4.5671673  16.1411673  47.3476493   8.6261673   3.0331673  40.0046493
   9.1161673   3.7501673  39.9276493   7.8361673   3.2941673  39.7416493
   8.5821673   3.1771673  39.9546493   9.9401673  10.9111673  51.9146493
  10.4241673  11.6291673  52.0126493  10.3341673  10.4841673  51.2636493
  10.0701673  10.9541673  51.8326493   4.2361673  13.7561673  53.0916493
   4.5901673  13.5781673  53.8686493   3.8001673  13.0271673  52.8926493
   4.2241673  13.6221673  53.1776493   5.2081673   4.5031673  45.7296493
   5.6881673   5.2021673  45.9376493   5.5811673   3.8561673  46.1806493
   5.3341673   4.5111673  45.8266493   7.3971673   7.6721673  38.0036493
   7.3891673   8.3941673  37.5136493   6.7581673   7.8071673  38.5806493
   7.3021673   7.7991673  38.0166493  12.3691673  11.5421673  41.9846493
  12.7251673  11.1921673  42.6996493  12.3611673  10.8811673  41.4146493
  12.4211673  11.3921673  42.0056493   8.4141673  14.6081673  45.8286493
   7.8111673  14.3121673  45.2716493   8.9591673  15.0601673  45.3196493
   8.4051673  14.6311673  45.6706493   8.4271673  11.4591673  45.2286493
   7.6301673  11.6831673  45.5026493   8.6851673  10.8651673  45.8136493
   8.3471673  11.4041673  45.3556493   2.3191673  16.2711673  39.6766493
   2.1721673  15.4951673  40.0476493   3.0081673  16.1241673  39.1616493
   2.3991673  16.1341673  39.6556493   4.6111673  15.7871673  38.0786493
   5.2331673  15.9501673  38.6686493   4.6471673  16.4781673  37.5466493
   4.7081673  15.9131673  38.0876493  11.6871673   9.4571673  50.0746493
  11.7421673   9.5821673  49.2126493  12.4401673   9.7771673  50.3766493
  11.8061673   9.5221673  49.9916493   7.8781673  14.8061673  54.3516493
   8.0421673  15.0891673  55.1606493   8.1411673  15.4671673  53.8466493
   7.9411673  14.9461673  54.3966493   7.4181673   9.2631673  49.6746493
   7.2631673   9.8731673  50.2786493   7.9521673   8.7051673  50.0806493
   7.4741673   9.2711673  49.8236493   5.8021673   7.6631673  40.3326493
   5.8611673   8.3131673  40.9116493   5.6131673   6.9671673  40.8236493
   5.7831673   7.6561673  40.4906493  11.0281673  11.9921673  46.2016493
  10.5491673  12.2901673  45.5356493  10.6721673  11.2161673  46.3796493
  10.9051673  11.9211673  46.1296493   5.0251673   9.7101673  44.7636493
   4.1781673   9.5161673  44.8446493   5.3491673   9.5451673  45.5566493
   4.9471673   9.6571673  44.8926493   1.7771673  16.4401673  35.6496493
   2.2161673  15.7431673  35.9376493   1.9841673  17.0641673  36.2226493
   1.8731673  16.4291673  35.7766493   2.1031673   4.5741673  43.8146493
   2.9491673   4.3841673  43.9126493   1.7331673   3.7971673  43.6766493
   2.1731673   4.4311673  43.8086493  14.7201673  16.1581673  38.1416493
  15.4141673  15.6911673  37.8936493  14.1811673  15.5601673  38.4786493
  14.7431673  16.0001673  38.1546493  11.9591673   8.9341673  47.3206493
  11.9521673   8.1581673  47.7186493  11.1181673   9.1681673  47.3136493
  11.8341673   8.8541673  47.3786493  13.2151673   9.0051673  44.7576493
  12.9291673   9.4061673  45.4776493  14.0751673   8.9431673  44.8846493
  13.3001673   9.0551673  44.8826493   2.9041673   5.8071673  38.6656493
   3.1761673   6.6331673  38.7326493   2.0411673   5.8821673  38.5696493
   2.8171673   5.9401673  38.6606493  10.8771673   2.9291673  53.2976493
  10.3521673   3.3881673  53.8216493  10.5161673   2.1341673  53.2916493
  10.7461673   2.8791673  53.3736493  14.3461673  14.6381673  45.2866493
  14.6361673  14.8951673  44.5056493  15.0411673  14.7341673  45.8056493
  14.4921673  14.6901673  45.2476493   9.3691673   6.4981673  53.3736493
   9.4421673   6.6021673  54.2366493   8.7351673   7.0561673  53.1526493
   9.2861673   6.5961673  53.4686493  11.6371673   6.8171673  51.7386493
  11.9561673   7.6031673  51.9416493  11.2671673   6.5471673  52.4816493
  11.6301673   6.8931673  51.8786493  10.9511673  13.2411673  37.2686493
  11.2851673  12.4351673  37.3036493  10.1961673  13.1691673  37.6986493
  10.8891673  13.1111673  37.3376493  11.4331673   5.0751673  42.9276493
  10.6881673   4.7521673  43.2456493  11.4351673   5.9011673  43.2076493
  11.3231673   5.1491673  43.0156493  14.3351673   7.3591673  54.4736493
  14.2831673   7.0181673  53.6726493  15.0721673   7.8261673  54.4516493
  14.4361673   7.3781673  54.3516493  13.8731673  11.0351673  50.6796493
  14.5011673  10.4861673  50.4236493  13.8121673  11.6001673  50.0176493
  13.9571673  11.0381673  50.5436493   8.3251673  11.1161673  36.6716493
   9.0091673  10.6021673  36.5026493   7.9081673  11.1621673  35.9066493
   8.3641673  11.0471673  36.5336493   3.0071673  12.2661673  47.9756493
   2.7091673  12.8581673  48.5426493   3.0621673  12.7081673  47.2266493
   2.9711673  12.4191673  47.9486493   5.5231673   8.6891673  47.4666493
   5.9991673   9.0631673  48.0946493   4.7001673   8.8231673  47.7256493
   5.4721673   8.7641673  47.5976493   2.2331673   4.2921673  50.2076493
   2.3941673   3.5481673  50.6346493   2.1881673   4.0431673  49.3726493
   2.2501673   4.1451673  50.1476493   4.7871673  16.0821673  42.6946493
   5.3331673  16.7611673  42.7486493   4.4371673  16.1641673  41.8996493
   4.8161673  16.1951673  42.5846493   2.9701673  14.3101673  46.0836493
   2.3461673  14.8921673  45.9016493   3.2181673  14.0241673  45.2976493
   2.9141673  14.3541673  45.9406493   7.2791673  10.9441673  53.0726493
   8.0361673  11.2301673  52.7466493   6.7321673  10.9961673  52.3946493
   7.3101673  10.9941673  52.9236493  11.1881673  13.4941673  51.5766493
  11.5341673  13.7641673  52.3306493  11.4821673  14.0761673  50.9966493
  11.2831673  13.6201673  51.6026493  13.0511673   5.6401673  36.9156493
  13.4291673   6.3171673  36.5156493  12.2091673   5.8641673  36.9466493
  12.9821673   5.7731673  36.8606493   4.5641673   9.0861673  35.9986493
   3.7591673   8.9091673  35.7136493   4.5311673   9.9371673  36.1906493
   4.4401673   9.1851673  35.9856493   8.5101673   4.2551673  51.7406493
   7.8621673   4.7251673  52.0886493   9.0751673   4.1661673  52.3996493
   8.4981673   4.3111673  51.8896493   8.1981673   5.7921673  48.0386493
   8.5001673   6.2121673  48.7416493   8.2341673   4.9521673  48.2706493
   8.2481673   5.7301673  48.1766493   5.6231673  15.9591673  51.9636493
   6.1011673  15.3591673  51.5476493   5.2721673  15.5161673  52.6286493
   5.6421673  15.8051673  52.0006493  10.7461673   5.2391673  40.2906493
  10.9531673   5.0381673  41.1146493  11.5021673   5.5071673  39.9486493
  10.8881673   5.2491673  40.3616493  12.2111673   9.2661673  40.1446493
  12.6871673   8.5371673  40.0966493  11.3901673   8.9801673  40.0686493
  12.1601673   9.1161673  40.1256493   5.6821673  11.1781673  50.9836493
   4.8871673  11.1141673  51.3346493   5.7531673  12.0251673  50.7886493
   5.5751673  11.2931673  51.0066493   8.4271673  10.4331673  42.4996493
   8.5031673  10.7741673  43.2986493   8.5961673   9.5861673  42.6206493
   8.4631673  10.3581673  42.6356493   5.9491673   9.7071673  42.0646493
   5.6511673   9.3921673  42.8216493   6.6441673  10.1801673  42.2996493
   6.0081673   9.7301673  42.2116493   6.1711673  13.8251673  50.0916493
   6.8581673  13.7111673  50.6166493   6.3051673  14.6161673  49.7476493
   6.2921673  13.9251673  50.1186493  14.3471673   6.4341673  51.9026493
  13.4921673   6.3121673  52.0286493  14.5001673   6.0391673  51.1396493
  14.2431673   6.3571673  51.8086493   8.8601673   7.0991673  50.4786493
   8.6051673   6.3801673  50.9006493   9.6811673   7.2151673  50.7486493
   8.9441673   7.0101673  50.5806493   6.7941673   8.2891673  53.6656493
   7.1171673   8.9751673  53.2336493   6.0901673   8.6121673  54.0676493
   6.7371673   8.4381673  53.6606493   9.8781673  16.6631673  44.5946493
   9.4271673  17.3061673  44.9736493  10.5861673  16.5841673  45.0996493
   9.9161673  16.7461673  44.7256493   6.5791673  11.7531673  47.5246493
   5.8851673  12.1551673  47.8676493   7.2561673  12.1861673  47.8636493
   6.5761673  11.8761673  47.6256493  11.9561673  14.3461673  54.1046493
  12.7321673  13.9561673  54.1876493  11.4871673  14.0101673  54.7596493
  12.0011673  14.2391673  54.2136493  12.9811673   6.3791673  39.5866493
  13.0841673   6.3211673  38.7226493  13.7221673   6.0471673  39.9046493
  13.1061673   6.3221673  39.5056493   6.9011673  13.3441673  40.6936493
   6.6961673  14.1771673  40.5346493   6.1261673  12.9621673  40.8156493
   6.7561673  13.4111673  40.6886493  12.0831673   6.5251673  48.9426493
  12.0811673   5.6621673  49.0666493  12.1501673   6.8491673  49.7496493
  12.0931673   6.4451673  49.0796493   2.2631673  13.6061673  37.1026493
   2.7041673  13.6861673  37.8506493   1.4581673  13.3901673  37.3606493
   2.2091673  13.5861673  37.2516493  10.5541673   2.0311673  46.3786493
  11.4091673   2.1301673  46.5236493  10.1851673   2.5841673  46.9436493
  10.6261673   2.1281673  46.4836493  10.8581673   7.3111673  44.8696493
  11.5241673   7.8521673  45.0296493  10.5131673   7.6221673  44.1306493
  10.9051673   7.4371673  44.7846493  11.1711673  15.3771673  40.6766493
  10.9971673  14.7231673  41.2266493  11.8841673  15.1061673  40.2536493
  11.2511673  15.2401673  40.6956493   2.4111673  10.9211673  36.4466493
   1.5931673  10.6531673  36.5866493   2.3831673  11.7731673  36.6316493
   2.2861673  11.0081673  36.4946493   8.8461673  12.8301673  48.3676493
   9.0521673  13.1311673  49.1596493   8.7851673  13.5521673  47.8826493
   8.8671673  12.9811673  48.4126493   8.3801673  17.0441673  52.6136493
   7.6271673  17.0261673  52.1726493   8.5481673  17.8961673  52.6976493
   8.2941673  17.1671673  52.5606493   3.6171673   6.3111673  51.7836493
   3.2951673   5.7351673  51.2136493   3.2581673   7.0661673  51.5376493
   3.5171673   6.3371673  51.6636493  13.6581673  11.4691673  47.8256493
  13.6261673  10.6071673  47.6906493  12.9651673  11.7711673  47.3916493
  13.5511673  11.3861673  47.7416493   2.0521673  16.6671673  52.0316493
   2.0931673  16.7931673  52.8946493   2.7031673  16.1071673  51.8756493
   2.1541673  16.6031673  52.1366493  11.7631673  14.7291673  46.6226493
  12.2901673  14.6461673  45.9316493  11.3721673  13.9511673  46.6766493
  11.7831673  14.6021673  46.5286493   7.6361673   5.9811673  43.3236493
   8.1871673   5.3741673  43.6236493   7.2111673   6.2441673  44.0386493
   7.6551673   5.9301673  43.4726493   9.6061673   7.8121673  39.8856493
   9.6741673   6.9621673  40.0666493   8.7831673   7.8981673  39.6076493
   9.4941673   7.6991673  39.8716493   3.5251673   8.7031673  38.8236493
   3.6251673   8.8421673  37.9686493   4.3431673   8.6431673  39.1196493
   3.6601673   8.7141673  38.7406493  12.6851673  16.7671673  36.3036493
  13.3221673  16.6331673  36.8846493  12.3441673  15.9731673  36.1866493
  12.7291673  16.6301673  36.3716493  12.8801673   9.1851673  53.0366493
  13.5141673   9.0151673  53.6106493  13.2971673   9.5881673  52.3846493
  13.0351673   9.2201673  53.0256493   8.7601673  13.0321673  38.6256493
   8.5091673  12.9041673  39.4516493   8.4431673  12.3371673  38.2046493
   8.6761673  12.9111673  38.6856493  13.5051673   3.7491673  53.7746493
  13.3091673   4.3931673  54.3296493  12.7831673   3.2591673  53.7666493
  13.3701673   3.7721673  53.8556493  13.4041673   4.6901673  46.7456493
  12.5711673   4.9401673  46.6736493  13.3481673   3.8501673  46.9746493
  13.2731673   4.6031673  46.7686493  10.2911673   9.2961673  54.3916493
  11.1621673   9.2601673  54.3556493  10.0721673   9.7161673  53.6596493
  10.3881673   9.3521673  54.2786493   5.6461673  11.2401673  38.0556493
   6.3631673  10.8931673  37.6996493   5.6121673  12.0401673  37.7076493
   5.7471673  11.3071673  37.9516493   6.8641673   6.7971673  26.9654083
   6.3401673   7.3931673  27.3284083   7.2611673   6.4291673  27.6494083
   6.8451673   6.8311673  27.1204083  13.0081673  14.2381673  19.9364083
  13.7091673  13.7191673  19.9324083  12.4211673  13.7931673  19.4674083
  13.0251673  14.0951673  19.8664083   9.5351673   7.8641673  23.6414083
   9.6151673   7.8681673  22.7724083   8.9511673   7.2321673  23.7904083
   9.4601673   7.7711673  23.5354083   3.2471673  11.1971673  33.7434083
   3.0111673  11.1941673  34.5834083   2.4991673  11.0491673  33.3194083
   3.1011673  11.1741673  33.8044083   2.6271673   3.8031673  28.2254083
   3.3051673   3.8211673  27.6764083   2.5821673   2.9671673  28.4704083
   2.7201673   3.6821673  28.1804083   3.2291673  14.3891673  31.0064083
   3.3671673  15.1491673  30.5994083   4.0201673  14.0241673  31.0334083
   3.3661673  14.4481673  30.9504083   4.3241673  12.2741673  25.5114083
   4.6721673  11.4751673  25.5414083   4.9891673  12.7781673  25.2564083
   4.4741673  12.2301673  25.4784083   4.3811673  11.7231673  21.7224083
   4.7121673  11.0791673  22.2084083   4.6211673  11.5121673  20.9114083
   4.4651673  11.5971673  21.6744083   6.3491673   5.8541673  33.0614083
   5.5011673   5.7551673  32.8834083   6.3781673   6.5991673  33.5154083
   6.2281673   5.9501673  33.1024083   8.3691673   3.4551673  16.6894083
   7.9191673   4.1361673  16.9964083   8.4831673   2.9511673  17.3924083
   8.3201673   3.4811673  16.8384083   2.3251673  13.5081673  21.2714083
   1.7461673  13.2331673  21.8634083   2.9491673  12.8991673  21.2964083
   2.3321673  13.3781673  21.3624083   8.4681673  15.7961673  18.7934083
   9.1951673  16.2681673  18.8954083   8.6971673  15.0021673  19.0734083
   8.6101673  15.7491673  18.8504083   6.6361673  16.1881673  20.7834083
   6.8501673  16.7151673  21.4454083   7.4031673  16.0141673  20.4044083
   6.7811673  16.2401673  20.8254083   2.9101673   2.9041673  35.6804083
   3.0271673   2.4501673  34.9444083   3.1981673   3.7021673  35.4774083
   2.9701673   2.9551673  35.5414083  13.7631673   3.4281673  22.9844083
  13.4171673   4.1061673  23.4104083  13.1271673   2.8301673  23.0004083
  13.6181673   3.4401673  23.0494083   9.0751673  16.1981673  29.0884083
   9.8191673  16.6541673  29.0784083   8.9541673  15.9841673  28.2514083
   9.1671673  16.2341673  28.9634083   2.0791673  15.6731673  24.5184083
   2.9231673  15.7771673  24.3234083   1.7821673  16.4911673  24.5864083
   2.1601673  15.8091673  24.4994083   5.8861673   5.0701673  22.6054083
   6.1731673   4.8381673  21.8154083   6.6181673   5.1491673  23.0744083
   6.0361673   5.0471673  22.5584083   6.6081673   5.4091673  17.7264083
   6.8891673   6.1971673  17.9754083   5.8321673   5.5741673  17.3634083
   6.5351673   5.5501673  17.7094083  10.6491673  17.3831673  19.1934083
  11.3141673  17.2351673  18.6484083  11.0091673  17.3001673  19.9834083
  10.8011673  17.3491673  19.2294083   8.3291673  13.3831673  32.7924083
   8.2951673  13.7651673  33.5764083   9.1831673  13.3411673  32.6214083
   8.4501673  13.4331673  32.8834083   5.4671673  13.5801673  17.5424083
   5.2861673  14.1251673  18.1994083   6.2331673  13.8701673  17.2414083
   5.5531673  13.7041673  17.5954083   6.2321673   3.8521673  19.9104083
   5.7241673   3.1901673  19.6564083   6.2841673   4.3561673  19.2004083
   6.1651673   3.8291673  19.7684083   6.7811673  16.5471673  30.2904083
   7.5491673  16.4671673  29.8844083   6.1981673  16.4261673  29.6524083
   6.8081673  16.5171673  30.1364083  13.0581673  17.1501673  23.1914083
  12.6031673  17.8671673  23.3924083  12.4441673  16.5791673  22.9494083
  12.9001673  17.1721673  23.1854083   4.8301673   3.1601673  24.3234083
   4.9041673   3.7281673  23.6654083   4.9511673   3.6521673  25.0334083
   4.8581673   3.3171673  24.3314083  10.0551673  12.9951673  22.7354083
  10.7561673  12.5131673  22.9244083   9.3951673  12.4261673  22.7804083
  10.0611673  12.8401673  22.7694083   2.3941673   9.4161673  26.6964083
   2.5661673   9.2061673  27.5254083   1.7391673   8.8821673  26.4804083
   2.3231673   9.3061673  26.7874083   8.6221673   3.3301673  30.2114083
   8.5271673   3.6491673  31.0174083   8.0291673   2.6911673  30.1734083
   8.5201673   3.2821673  30.3254083   3.1441673   9.3541673  29.2864083
   3.1971673  10.2011673  29.4884083   2.8591673   8.9841673  30.0234083
   3.1101673   9.4241673  29.4244083   9.3211673  10.0491673  28.4164083
   8.8071673   9.6371673  28.9874083   9.1951673  10.8931673  28.5974083
   9.2271673  10.1131673  28.5274083  12.3421673   3.5101673  31.3554083
  13.1141673   3.2851673  31.6924083  11.8671673   3.7271673  32.0554083
  12.3861673   3.5091673  31.5084083  12.5741673  10.4881673  18.5434083
  12.6931673  10.2011673  19.3584083  13.3811673  10.5091673  18.2134083
  12.7101673  10.4491673  18.6154083  14.8081673  14.9971673  32.7974083
  14.1261673  15.3071673  32.3504083  14.4391673  14.5391673  33.4424083
  14.6521673  14.9751673  32.8264083  10.4691673   7.0251673  18.1284083
  10.2491673   7.7561673  17.7064083  10.0211673   7.0761673  18.8754083
  10.3701673   7.1401673  18.1764083   2.0781673  10.2271673  22.1094083
   2.7911673  10.7221673  22.1994083   2.3001673   9.6601673  21.4834083
   2.2161673  10.2161673  22.0304083   3.8811673   5.5801673  35.5254083
   3.3971673   6.1571673  35.9674083   3.8531673   5.8751673  34.7044083
   3.8051673   5.7091673  35.4694083  14.9791673   6.2641673  30.1374083
  15.1941673   5.4641673  29.8614083  14.1291673   6.3241673  29.9484083
  14.8851673   6.1551673  30.0684083   6.6011673  13.9301673  24.4364083
   6.0781673  14.5641673  24.1434083   6.9111673  13.5661673  23.7074083
   6.5691673  13.9701673  24.2854083   9.1121673   3.7321673  24.9334083
   9.4561673   3.8841673  25.7204083   8.6591673   2.9941673  25.0464083
   9.0961673   3.6451673  25.0664083   3.5881673   2.9521673  19.3904083
   3.5861673   2.8351673  18.5254083   3.4071673   3.8001673  19.4824083
   3.5611673   3.0601673  19.2764083  12.6421673  15.3791673  30.8874083
  11.9711673  15.8931673  31.1054083  12.7051673  15.4791673  30.0234083
  12.5521673  15.4701673  30.7924083  10.4331673   5.0641673  27.4874083
   9.7711673   5.3921673  27.9504083  10.6201673   5.6981673  26.9184083
  10.3631673   5.2061673  27.4714083   4.6381673  16.1281673  28.4834083
   4.3611673  15.4871673  27.9604083   4.4301673  16.8541673  28.0454083
   4.5671673  16.1411673  28.3414083   8.6261673   3.0331673  20.9984083
   9.1161673   3.7501673  20.9214083   7.8361673   3.2941673  20.7354083
   8.5821673   3.1771673  20.9484083   9.9401673  10.9111673  32.9084083
  10.4241673  11.6291673  33.0064083  10.3341673  10.4841673  32.2574083
  10.0701673  10.9541673  32.8264083   4.2361673  13.7561673  34.0854083
   4.5901673  13.5781673  34.8624083   3.8001673  13.0271673  33.8864083
   4.2241673  13.6221673  34.1714083   5.2081673   4.5031673  26.7234083
   5.6881673   5.2021673  26.9314083   5.5811673   3.8561673  27.1744083
   5.3341673   4.5111673  26.8204083   7.3971673   7.6721673  18.9974083
   7.3891673   8.3941673  18.5074083   6.7581673   7.8071673  19.5744083
   7.3021673   7.7991673  19.0104083  12.3691673  11.5421673  22.9784083
  12.7251673  11.1921673  23.6934083  12.3611673  10.8811673  22.4084083
  12.4211673  11.3921673  22.9994083   8.4141673  14.6081673  26.8224083
   7.8111673  14.3121673  26.2654083   8.9591673  15.0601673  26.3134083
   8.4051673  14.6311673  26.6644083   8.4271673  11.4591673  26.2224083
   7.6301673  11.6831673  26.4964083   8.6851673  10.8651673  26.8074083
   8.3471673  11.4041673  26.3494083   2.3191673  16.2711673  20.6704083
   2.1721673  15.4951673  21.0414083   3.0081673  16.1241673  20.1554083
   2.3991673  16.1341673  20.6494083   4.6111673  15.7871673  19.0724083
   5.2331673  15.9501673  19.6624083   4.6471673  16.4781673  18.5404083
   4.7081673  15.9131673  19.0814083  11.6871673   9.4571673  31.0684083
  11.7421673   9.5821673  30.2064083  12.4401673   9.7771673  31.3704083
  11.8061673   9.5221673  30.9854083   7.8781673  14.8061673  35.3454083
   8.0421673  15.0891673  36.1544083   8.1411673  15.4671673  34.8404083
   7.9411673  14.9461673  35.3904083   7.4181673   9.2631673  30.6684083
   7.2631673   9.8731673  31.2724083   7.9521673   8.7051673  31.0744083
   7.4741673   9.2711673  30.8174083   5.8021673   7.6631673  21.3264083
   5.8611673   8.3131673  21.9054083   5.6131673   6.9671673  21.8174083
   5.7831673   7.6561673  21.4844083  11.0281673  11.9921673  27.1954083
  10.5491673  12.2901673  26.5294083  10.6721673  11.2161673  27.3734083
  10.9051673  11.9211673  27.1234083   5.0251673   9.7101673  25.7574083
   4.1781673   9.5161673  25.8384083   5.3491673   9.5451673  26.5504083
   4.9471673   9.6571673  25.8864083   1.7771673  16.4401673  16.6434083
   2.2161673  15.7431673  16.9314083   1.9841673  17.0641673  17.2164083
   1.8731673  16.4291673  16.7704083   2.1031673   4.5741673  24.8084083
   2.9491673   4.3841673  24.9064083   1.7331673   3.7971673  24.6704083
   2.1731673   4.4311673  24.8024083  14.7201673  16.1581673  19.1354083
  15.4141673  15.6911673  18.8874083  14.1811673  15.5601673  19.4724083
  14.7431673  16.0001673  19.1484083  11.9591673   8.9341673  28.3144083
  11.9521673   8.1581673  28.7124083  11.1181673   9.1681673  28.3074083
  11.8341673   8.8541673  28.3724083  13.2151673   9.0051673  25.7514083
  12.9291673   9.4061673  26.4714083  14.0751673   8.9431673  25.8784083
  13.3001673   9.0551673  25.8764083   2.9041673   5.8071673  19.6594083
   3.1761673   6.6331673  19.7264083   2.0411673   5.8821673  19.5634083
   2.8171673   5.9401673  19.6544083  10.8771673   2.9291673  34.2914083
  10.3521673   3.3881673  34.8154083  10.5161673   2.1341673  34.2854083
  10.7461673   2.8791673  34.3674083  14.3461673  14.6381673  26.2804083
  14.6361673  14.8951673  25.4994083  15.0411673  14.7341673  26.7994083
  14.4921673  14.6901673  26.2414083   9.3691673   6.4981673  34.3674083
   9.4421673   6.6021673  35.2304083   8.7351673   7.0561673  34.1464083
   9.2861673   6.5961673  34.4624083  11.6371673   6.8171673  32.7324083
  11.9561673   7.6031673  32.9354083  11.2671673   6.5471673  33.4754083
  11.6301673   6.8931673  32.8724083  10.9511673  13.2411673  18.2624083
  11.2851673  12.4351673  18.2974083  10.1961673  13.1691673  18.6924083
  10.8891673  13.1111673  18.3314083  11.4331673   5.0751673  23.9214083
  10.6881673   4.7521673  24.2394083  11.4351673   5.9011673  24.2014083
  11.3231673   5.1491673  24.0094083  14.3351673   7.3591673  35.4674083
  14.2831673   7.0181673  34.6664083  15.0721673   7.8261673  35.4454083
  14.4361673   7.3781673  35.3454083  13.8731673  11.0351673  31.6734083
  14.5011673  10.4861673  31.4174083  13.8121673  11.6001673  31.0114083
  13.9571673  11.0381673  31.5374083   8.3251673  11.1161673  17.6654083
   9.0091673  10.6021673  17.4964083   7.9081673  11.1621673  16.9004083
   8.3641673  11.0471673  17.5274083   3.0071673  12.2661673  28.9694083
   2.7091673  12.8581673  29.5364083   3.0621673  12.7081673  28.2204083
   2.9711673  12.4191673  28.9424083   5.5231673   8.6891673  28.4604083
   5.9991673   9.0631673  29.0884083   4.7001673   8.8231673  28.7194083
   5.4721673   8.7641673  28.5914083   2.2331673   4.2921673  31.2014083
   2.3941673   3.5481673  31.6284083   2.1881673   4.0431673  30.3664083
   2.2501673   4.1451673  31.1414083   4.7871673  16.0821673  23.6884083
   5.3331673  16.7611673  23.7424083   4.4371673  16.1641673  22.8934083
   4.8161673  16.1951673  23.5784083   2.9701673  14.3101673  27.0774083
   2.3461673  14.8921673  26.8954083   3.2181673  14.0241673  26.2914083
   2.9141673  14.3541673  26.9344083   7.2791673  10.9441673  34.0664083
   8.0361673  11.2301673  33.7404083   6.7321673  10.9961673  33.3884083
   7.3101673  10.9941673  33.9174083  11.1881673  13.4941673  32.5704083
  11.5341673  13.7641673  33.3244083  11.4821673  14.0761673  31.9904083
  11.2831673  13.6201673  32.5964083  13.0511673   5.6401673  17.9094083
  13.4291673   6.3171673  17.5094083  12.2091673   5.8641673  17.9404083
  12.9821673   5.7731673  17.8544083   4.5641673   9.0861673  16.9924083
   3.7591673   8.9091673  16.7074083   4.5311673   9.9371673  17.1844083
   4.4401673   9.1851673  16.9794083   8.5101673   4.2551673  32.7344083
   7.8621673   4.7251673  33.0824083   9.0751673   4.1661673  33.3934083
   8.4981673   4.3111673  32.8834083   8.1981673   5.7921673  29.0324083
   8.5001673   6.2121673  29.7354083   8.2341673   4.9521673  29.2644083
   8.2481673   5.7301673  29.1704083   5.6231673  15.9591673  32.9574083
   6.1011673  15.3591673  32.5414083   5.2721673  15.5161673  33.6224083
   5.6421673  15.8051673  32.9944083  10.7461673   5.2391673  21.2844083
  10.9531673   5.0381673  22.1084083  11.5021673   5.5071673  20.9424083
  10.8881673   5.2491673  21.3554083  12.2111673   9.2661673  21.1384083
  12.6871673   8.5371673  21.0904083  11.3901673   8.9801673  21.0624083
  12.1601673   9.1161673  21.1194083   5.6821673  11.1781673  31.9774083
   4.8871673  11.1141673  32.3284083   5.7531673  12.0251673  31.7824083
   5.5751673  11.2931673  32.0004083   8.4271673  10.4331673  23.4934083
   8.5031673  10.7741673  24.2924083   8.5961673   9.5861673  23.6144083
   8.4631673  10.3581673  23.6294083   5.9491673   9.7071673  23.0584083
   5.6511673   9.3921673  23.8154083   6.6441673  10.1801673  23.2934083
   6.0081673   9.7301673  23.2054083   6.1711673  13.8251673  31.0854083
   6.8581673  13.7111673  31.6104083   6.3051673  14.6161673  30.7414083
   6.2921673  13.9251673  31.1124083  14.3471673   6.4341673  32.8964083
  13.4921673   6.3121673  33.0224083  14.5001673   6.0391673  32.1334083
  14.2431673   6.3571673  32.8024083   8.8601673   7.0991673  31.4724083
   8.6051673   6.3801673  31.8944083   9.6811673   7.2151673  31.7424083
   8.9441673   7.0101673  31.5744083   6.7941673   8.2891673  34.6594083
   7.1171673   8.9751673  34.2274083   6.0901673   8.6121673  35.0614083
   6.7371673   8.4381673  34.6544083   9.8781673  16.6631673  25.5884083
   9.4271673  17.3061673  25.9674083  10.5861673  16.5841673  26.0934083
   9.9161673  16.7461673  25.7194083   6.5791673  11.7531673  28.5184083
   5.8851673  12.1551673  28.8614083   7.2561673  12.1861673  28.8574083
   6.5761673  11.8761673  28.6194083  11.9561673  14.3461673  35.0984083
  12.7321673  13.9561673  35.1814083  11.4871673  14.0101673  35.7534083
  12.0011673  14.2391673  35.2074083  12.9811673   6.3791673  20.5804083
  13.0841673   6.3211673  19.7164083  13.7221673   6.0471673  20.8984083
  13.1061673   6.3221673  20.4994083   6.9011673  13.3441673  21.6874083
   6.6961673  14.1771673  21.5284083   6.1261673  12.9621673  21.8094083
   6.7561673  13.4111673  21.6824083  12.0831673   6.5251673  29.9364083
  12.0811673   5.6621673  30.0604083  12.1501673   6.8491673  30.7434083
  12.0931673   6.4451673  30.0734083   2.2631673  13.6061673  18.0964083
   2.7041673  13.6861673  18.8444083   1.4581673  13.3901673  18.3544083
   2.2091673  13.5861673  18.2454083  10.5541673   2.0311673  27.3724083
  11.4091673   2.1301673  27.5174083  10.1851673   2.5841673  27.9374083
  10.6261673   2.1281673  27.4774083  10.8581673   7.3111673  25.8634083
  11.5241673   7.8521673  26.0234083  10.5131673   7.6221673  25.1244083
  10.9051673   7.4371673  25.7784083  11.1711673  15.3771673  21.6704083
  10.9971673  14.7231673  22.2204083  11.8841673  15.1061673  21.2474083
  11.2511673  15.2401673  21.6894083   2.4111673  10.9211673  17.4404083
   1.5931673  10.6531673  17.5804083   2.3831673  11.7731673  17.6254083
   2.2861673  11.0081673  17.4884083   8.8461673  12.8301673  29.3614083
   9.0521673  13.1311673  30.1534083   8.7851673  13.5521673  28.8764083
   8.8671673  12.9811673  29.4064083   8.3801673  17.0441673  33.6074083
   7.6271673  17.0261673  33.1664083   8.5481673  17.8961673  33.6914083
   8.2941673  17.1671673  33.5544083   3.6171673   6.3111673  32.7774083
   3.2951673   5.7351673  32.2074083   3.2581673   7.0661673  32.5314083
   3.5171673   6.3371673  32.6574083  13.6581673  11.4691673  28.8194083
  13.6261673  10.6071673  28.6844083  12.9651673  11.7711673  28.3854083
  13.5511673  11.3861673  28.7354083   2.0521673  16.6671673  33.0254083
   2.0931673  16.7931673  33.8884083   2.7031673  16.1071673  32.8694083
   2.1541673  16.6031673  33.1304083  11.7631673  14.7291673  27.6164083
  12.2901673  14.6461673  26.9254083  11.3721673  13.9511673  27.6704083
  11.7831673  14.6021673  27.5224083   7.6361673   5.9811673  24.3174083
   8.1871673   5.3741673  24.6174083   7.2111673   6.2441673  25.0324083
   7.6551673   5.9301673  24.4664083   9.6061673   7.8121673  20.8794083
   9.6741673   6.9621673  21.0604083   8.7831673   7.8981673  20.6014083
   9.4941673   7.6991673  20.8654083   3.5251673   8.7031673  19.8174083
   3.6251673   8.8421673  18.9624083   4.3431673   8.6431673  20.1134083
   3.6601673   8.7141673  19.7344083  12.6851673  16.7671673  17.2974083
  13.3221673  16.6331673  17.8784083  12.3441673  15.9731673  17.1804083
  12.7291673  16.6301673  17.3654083  12.8801673   9.1851673  34.0304083
  13.5141673   9.0151673  34.6044083  13.2971673   9.5881673  33.3784083
  13.0351673   9.2201673  34.0194083   8.7601673  13.0321673  19.6194083
   8.5091673  12.9041673  20.4454083   8.4431673  12.3371673  19.1984083
   8.6761673  12.9111673  19.6794083  13.5051673   3.7491673  34.7684083
  13.3091673   4.3931673  35.3234083  12.7831673   3.2591673  34.7604083
  13.3701673   3.7721673  34.8494083  13.4041673   4.6901673  27.7394083
  12.5711673   4.9401673  27.6674083  13.3481673   3.8501673  27.9684083
  13.2731673   4.6031673  27.7624083  10.2911673   9.2961673  35.3854083
  11.1621673   9.2601673  35.3494083  10.0721673   9.7161673  34.6534083
  10.3881673   9.3521673  35.2724083   5.6461673  11.2401673  19.0494083
   6.3631673  10.8931673  18.6934083   5.6121673  12.0401673  18.7014083
   5.7471673  11.3071673  18.9454083   6.8641673   6.7971673   7.9591673
   6.3401673   7.3931673   8.3221673   7.2611673   6.4291673   8.6431673
   6.8451673   6.8311673   8.1141673   9.5351673   7.8641673   4.6351673
   9.6151673   7.8681673   3.7661673   8.9511673   7.2321673   4.7841673
   9.4601673   7.7711673   4.5291673   3.2471673  11.1971673  14.7371673
   3.0111673  11.1941673  15.5771673   2.4991673  11.0491673  14.3131673
   3.1011673  11.1741673  14.7981673   2.6271673   3.8031673   9.2191673
   3.3051673   3.8211673   8.6701673   2.5821673   2.9671673   9.4641673
   2.7201673   3.6821673   9.1741673   3.2291673  14.3891673  12.0001673
   3.3671673  15.1491673  11.5931673   4.0201673  14.0241673  12.0271673
   3.3661673  14.4481673  11.9441673   4.3241673  12.2741673   6.5051673
   4.6721673  11.4751673   6.5351673   4.9891673  12.7781673   6.2501673
   4.4741673  12.2301673   6.4721673   4.3811673  11.7231673   2.7161673
   4.7121673  11.0791673   3.2021673   4.6211673  11.5121673   1.9051673
   4.4651673  11.5971673   2.6681673   6.3491673   5.8541673  14.0551673
   5.5011673   5.7551673  13.8771673   6.3781673   6.5991673  14.5091673
   6.2281673   5.9501673  14.0961673   2.3251673  13.5081673   2.2651673
   1.7461673  13.2331673   2.8571673   2.9491673  12.8991673   2.2901673
   2.3321673  13.3781673   2.3561673   6.6361673  16.1881673   1.7771673
   6.8501673  16.7151673   2.4391673   7.4031673  16.0141673   1.3981673
   6.7811673  16.2401673   1.8191673   2.9101673   2.9041673  16.6741673
   3.0271673   2.4501673  15.9381673   3.1981673   3.7021673  16.4711673
   2.9701673   2.9551673  16.5351673  13.7631673   3.4281673   3.9781673
  13.4171673   4.1061673   4.4041673  13.1271673   2.8301673   3.9941673
  13.6181673   3.4401673   4.0431673   9.0751673  16.1981673  10.0821673
   9.8191673  16.6541673  10.0721673   8.9541673  15.9841673   9.2451673
   9.1671673  16.2341673   9.9571673   2.0791673  15.6731673   5.5121673
   2.9231673  15.7771673   5.3171673   1.7821673  16.4911673   5.5801673
   2.1601673  15.8091673   5.4931673   5.8861673   5.0701673   3.5991673
   6.1731673   4.8381673   2.8091673   6.6181673   5.1491673   4.0681673
   6.0361673   5.0471673   3.5521673   8.3291673  13.3831673  13.7861673
   8.2951673  13.7651673  14.5701673   9.1831673  13.3411673  13.6151673
   8.4501673  13.4331673  13.8771673   6.7811673  16.5471673  11.2841673
   7.5491673  16.4671673  10.8781673   6.1981673  16.4261673  10.6461673
   6.8081673  16.5171673  11.1301673  13.0581673  17.1501673   4.1851673
  12.6031673  17.8671673   4.3861673  12.4441673  16.5791673   3.9431673
  12.9001673  17.1721673   4.1791673   4.8301673   3.1601673   5.3171673
   4.9041673   3.7281673   4.6591673   4.9511673   3.6521673   6.0271673
   4.8581673   3.3171673   5.3251673  10.0551673  12.9951673   3.7291673
  10.7561673  12.5131673   3.9181673   9.3951673  12.4261673   3.7741673
  10.0611673  12.8401673   3.7631673   2.3941673   9.4161673   7.6901673
   2.5661673   9.2061673   8.5191673   1.7391673   8.8821673   7.4741673
   2.3231673   9.3061673   7.7811673   8.6221673   3.3301673  11.2051673
   8.5271673   3.6491673  12.0111673   8.0291673   2.6911673  11.1671673
   8.5201673   3.2821673  11.3191673   3.1441673   9.3541673  10.2801673
   3.1971673  10.2011673  10.4821673   2.8591673   8.9841673  11.0171673
   3.1101673   9.4241673  10.4181673   9.3211673  10.0491673   9.4101673
   8.8071673   9.6371673   9.9811673   9.1951673  10.8931673   9.5911673
   9.2271673  10.1131673   9.5211673  12.3421673   3.5101673  12.3491673
  13.1141673   3.2851673  12.6861673  11.8671673   3.7271673  13.0491673
  12.3861673   3.5091673  12.5021673  14.8081673  14.9971673  13.7911673
  14.1261673  15.3071673  13.3441673  14.4391673  14.5391673  14.4361673
  14.6521673  14.9751673  13.8201673   2.0781673  10.2271673   3.1031673
   2.7911673  10.7221673   3.1931673   2.3001673   9.6601673   2.4771673
   2.2161673  10.2161673   3.0241673   3.8811673   5.5801673  16.5191673
   3.3971673   6.1571673  16.9611673   3.8531673   5.8751673  15.6981673
   3.8051673   5.7091673  16.4631673  14.9791673   6.2641673  11.1311673
  15.1941673   5.4641673  10.8551673  14.1291673   6.3241673  10.9421673
  14.8851673   6.1551673  11.0621673   6.6011673  13.9301673   5.4301673
   6.0781673  14.5641673   5.1371673   6.9111673  13.5661673   4.7011673
   6.5691673  13.9701673   5.2791673   9.1121673   3.7321673   5.9271673
   9.4561673   3.8841673   6.7141673   8.6591673   2.9941673   6.0401673
   9.0961673   3.6451673   6.0601673  12.6421673  15.3791673  11.8811673
  11.9711673  15.8931673  12.0991673  12.7051673  15.4791673  11.0171673
  12.5521673  15.4701673  11.7861673  10.4331673   5.0641673   8.4811673
   9.7711673   5.3921673   8.9441673  10.6201673   5.6981673   7.9121673
  10.3631673   5.2061673   8.4651673   4.6381673  16.1281673   9.4771673
   4.3611673  15.4871673   8.9541673   4.4301673  16.8541673   9.0391673
   4.5671673  16.1411673   9.3351673   8.6261673   3.0331673   1.9921673
   9.1161673   3.7501673   1.9151673   7.8361673   3.2941673   1.7291673
   8.5821673   3.1771673   1.9421673   9.9401673  10.9111673  13.9021673
  10.4241673  11.6291673  14.0001673  10.3341673  10.4841673  13.2511673
  10.0701673  10.9541673  13.8201673   4.2361673  13.7561673  15.0791673
   4.5901673  13.5781673  15.8561673   3.8001673  13.0271673  14.8801673
   4.2241673  13.6221673  15.1651673   5.2081673   4.5031673   7.7171673
   5.6881673   5.2021673   7.9251673   5.5811673   3.8561673   8.1681673
   5.3341673   4.5111673   7.8141673  12.3691673  11.5421673   3.9721673
  12.7251673  11.1921673   4.6871673  12.3611673  10.8811673   3.4021673
  12.4211673  11.3921673   3.9931673   8.4141673  14.6081673   7.8161673
   7.8111673  14.3121673   7.2591673   8.9591673  15.0601673   7.3071673
   8.4051673  14.6311673   7.6581673   8.4271673  11.4591673   7.2161673
   7.6301673  11.6831673   7.4901673   8.6851673  10.8651673   7.8011673
   8.3471673  11.4041673   7.3431673  11.6871673   9.4571673  12.0621673
  11.7421673   9.5821673  11.2001673  12.4401673   9.7771673  12.3641673
  11.8061673   9.5221673  11.9791673   7.8781673  14.8061673  16.3391673
   8.0421673  15.0891673  17.1481673   8.1411673  15.4671673  15.8341673
   7.9411673  14.9461673  16.3841673   7.4181673   9.2631673  11.6621673
   7.2631673   9.8731673  12.2661673   7.9521673   8.7051673  12.0681673
   7.4741673   9.2711673  11.8111673   5.8021673   7.6631673   2.3201673
   5.8611673   8.3131673   2.8991673   5.6131673   6.9671673   2.8111673
   5.7831673   7.6561673   2.4781673  11.0281673  11.9921673   8.1891673
  10.5491673  12.2901673   7.5231673  10.6721673  11.2161673   8.3671673
  10.9051673  11.9211673   8.1171673   5.0251673   9.7101673   6.7511673
   4.1781673   9.5161673   6.8321673   5.3491673   9.5451673   7.5441673
   4.9471673   9.6571673   6.8801673   2.1031673   4.5741673   5.8021673
   2.9491673   4.3841673   5.9001673   1.7331673   3.7971673   5.6641673
   2.1731673   4.4311673   5.7961673  11.9591673   8.9341673   9.3081673
  11.9521673   8.1581673   9.7061673  11.1181673   9.1681673   9.3011673
  11.8341673   8.8541673   9.3661673  13.2151673   9.0051673   6.7451673
  12.9291673   9.4061673   7.4651673  14.0751673   8.9431673   6.8721673
  13.3001673   9.0551673   6.8701673  10.8771673   2.9291673  15.2851673
  10.3521673   3.3881673  15.8091673  10.5161673   2.1341673  15.2791673
  10.7461673   2.8791673  15.3611673  14.3461673  14.6381673   7.2741673
  14.6361673  14.8951673   6.4931673  15.0411673  14.7341673   7.7931673
  14.4921673  14.6901673   7.2351673   9.3691673   6.4981673  15.3611673
   9.4421673   6.6021673  16.2241673   8.7351673   7.0561673  15.1401673
   9.2861673   6.5961673  15.4561673  11.6371673   6.8171673  13.7261673
  11.9561673   7.6031673  13.9291673  11.2671673   6.5471673  14.4691673
  11.6301673   6.8931673  13.8661673  11.4331673   5.0751673   4.9151673
  10.6881673   4.7521673   5.2331673  11.4351673   5.9011673   5.1951673
  11.3231673   5.1491673   5.0031673  14.3351673   7.3591673  16.4611673
  14.2831673   7.0181673  15.6601673  15.0721673   7.8261673  16.4391673
  14.4361673   7.3781673  16.3391673  13.8731673  11.0351673  12.6671673
  14.5011673  10.4861673  12.4111673  13.8121673  11.6001673  12.0051673
  13.9571673  11.0381673  12.5311673   3.0071673  12.2661673   9.9631673
   2.7091673  12.8581673  10.5301673   3.0621673  12.7081673   9.2141673
   2.9711673  12.4191673   9.9361673   5.5231673   8.6891673   9.4541673
   5.9991673   9.0631673  10.0821673   4.7001673   8.8231673   9.7131673
   5.4721673   8.7641673   9.5851673   2.2331673   4.2921673  12.1951673
   2.3941673   3.5481673  12.6221673   2.1881673   4.0431673  11.3601673
   2.2501673   4.1451673  12.1351673   4.7871673  16.0821673   4.6821673
   5.3331673  16.7611673   4.7361673   4.4371673  16.1641673   3.8871673
   4.8161673  16.1951673   4.5721673   2.9701673  14.3101673   8.0711673
   2.3461673  14.8921673   7.8891673   3.2181673  14.0241673   7.2851673
   2.9141673  14.3541673   7.9281673   7.2791673  10.9441673  15.0601673
   8.0361673  11.2301673  14.7341673   6.7321673  10.9961673  14.3821673
   7.3101673  10.9941673  14.9111673  11.1881673  13.4941673  13.5641673
  11.5341673  13.7641673  14.3181673  11.4821673  14.0761673  12.9841673
  11.2831673  13.6201673  13.5901673   8.5101673   4.2551673  13.7281673
   7.8621673   4.7251673  14.0761673   9.0751673   4.1661673  14.3871673
   8.4981673   4.3111673  13.8771673   8.1981673   5.7921673  10.0261673
   8.5001673   6.2121673  10.7291673   8.2341673   4.9521673  10.2581673
   8.2481673   5.7301673  10.1641673   5.6231673  15.9591673  13.9511673
   6.1011673  15.3591673  13.5351673   5.2721673  15.5161673  14.6161673
   5.6421673  15.8051673  13.9881673  10.7461673   5.2391673   2.2781673
  10.9531673   5.0381673   3.1021673  11.5021673   5.5071673   1.9361673
  10.8881673   5.2491673   2.3491673  12.2111673   9.2661673   2.1321673
  12.6871673   8.5371673   2.0841673  11.3901673   8.9801673   2.0561673
  12.1601673   9.1161673   2.1131673   5.6821673  11.1781673  12.9711673
   4.8871673  11.1141673  13.3221673   5.7531673  12.0251673  12.7761673
   5.5751673  11.2931673  12.9941673   8.4271673  10.4331673   4.4871673
   8.5031673  10.7741673   5.2861673   8.5961673   9.5861673   4.6081673
   8.4631673  10.3581673   4.6231673   5.9491673   9.7071673   4.0521673
   5.6511673   9.3921673   4.8091673   6.6441673  10.1801673   4.2871673
   6.0081673   9.7301673   4.1991673   6.1711673  13.8251673  12.0791673
   6.8581673  13.7111673  12.6041673   6.3051673  14.6161673  11.7351673
   6.2921673  13.9251673  12.1061673  14.3471673   6.4341673  13.8901673
  13.4921673   6.3121673  14.0161673  14.5001673   6.0391673  13.1271673
  14.2431673   6.3571673  13.7961673   8.8601673   7.0991673  12.4661673
   8.6051673   6.3801673  12.8881673   9.6811673   7.2151673  12.7361673
   8.9441673   7.0101673  12.5681673   6.7941673   8.2891673  15.6531673
   7.1171673   8.9751673  15.2211673   6.0901673   8.6121673  16.0551673
   6.7371673   8.4381673  15.6481673   9.8781673  16.6631673   6.5821673
   9.4271673  17.3061673   6.9611673  10.5861673  16.5841673   7.0871673
   9.9161673  16.7461673   6.7131673   6.5791673  11.7531673   9.5121673
   5.8851673  12.1551673   9.8551673   7.2561673  12.1861673   9.8511673
   6.5761673  11.8761673   9.6131673  11.9561673  14.3461673  16.0921673
  12.7321673  13.9561673  16.1751673  11.4871673  14.0101673  16.7471673
  12.0011673  14.2391673  16.2011673   6.9011673  13.3441673   2.6811673
   6.6961673  14.1771673   2.5221673   6.1261673  12.9621673   2.8031673
   6.7561673  13.4111673   2.6761673  12.0831673   6.5251673  10.9301673
  12.0811673   5.6621673  11.0541673  12.1501673   6.8491673  11.7371673
  12.0931673   6.4451673  11.0671673  10.5541673   2.0311673   8.3661673
  11.4091673   2.1301673   8.5111673  10.1851673   2.5841673   8.9311673
  10.6261673   2.1281673   8.4711673  10.8581673   7.3111673   6.8571673
  11.5241673   7.8521673   7.0171673  10.5131673   7.6221673   6.1181673
  10.9051673   7.4371673   6.7721673  11.1711673  15.3771673   2.6641673
  10.9971673  14.7231673   3.2141673  11.8841673  15.1061673   2.2411673
  11.2511673  15.2401673   2.6831673   8.8461673  12.8301673  10.3551673
   9.0521673  13.1311673  11.1471673   8.7851673  13.5521673   9.8701673
   8.8671673  12.9811673  10.4001673   8.3801673  17.0441673  14.6011673
   7.6271673  17.0261673  14.1601673   8.5481673  17.8961673  14.6851673
   8.2941673  17.1671673  14.5481673   3.6171673   6.3111673  13.7711673
   3.2951673   5.7351673  13.2011673   3.2581673   7.0661673  13.5251673
   3.5171673   6.3371673  13.6511673  13.6581673  11.4691673   9.8131673
  13.6261673  10.6071673   9.6781673  12.9651673  11.7711673   9.3791673
  13.5511673  11.3861673   9.7291673   2.0521673  16.6671673  14.0191673
   2.0931673  16.7931673  14.8821673   2.7031673  16.1071673  13.8631673
   2.1541673  16.6031673  14.1241673  11.7631673  14.7291673   8.6101673
  12.2901673  14.6461673   7.9191673  11.3721673  13.9511673   8.6641673
  11.7831673  14.6021673   8.5161673   7.6361673   5.9811673   5.3111673
   8.1871673   5.3741673   5.6111673   7.2111673   6.2441673   6.0261673
   7.6551673   5.9301673   5.4601673   9.6061673   7.8121673   1.8731673
   9.6741673   6.9621673   2.0541673   8.7831673   7.8981673   1.5951673
   9.4941673   7.6991673   1.8591673  12.8801673   9.1851673  15.0241673
  13.5141673   9.0151673  15.5981673  13.2971673   9.5881673  14.3721673
  13.0351673   9.2201673  15.0131673  13.5051673   3.7491673  15.7621673
  13.3091673   4.3931673  16.3171673  12.7831673   3.2591673  15.7541673
  13.3701673   3.7721673  15.8431673  13.4041673   4.6901673   8.7331673
  12.5711673   4.9401673   8.6611673  13.3481673   3.8501673   8.9621673
  13.2731673   4.6031673   8.7561673  10.2911673   9.2961673  16.3791673
  11.1621673   9.2601673  16.3431673  10.0721673   9.7161673  15.6471673
  10.3881673   9.3521673  16.2661673
  67.2178665  72.2656585  90.5452985  90.0000000  90.0000000  90.0000000
