%VERSION  VERSION_STAMP = V0001.000  DATE = 02/14/26 17:40:51                  
%FLAG TITLE                                                                     
%FORMAT(20a4)                                                                   
default_name                                                                    
%FLAG POINTERS                                                                  
%FORMAT(10I8)                                                                   
     243       9       0     251       0     344       0    1029       0       0
     989      33     251     344    1029      44      75     133      39       0
       0       0       0       0       0       0       0       1      14       0
       0
%FLAG ATOM_NAME                                                                 
%FORMAT(20a4)                                                                   
CH3 C   O   N   CA  CB  CG  CD1 NE1 CE2 CZ2 CH2 CZ3 CE3 CD2 C   O   N   CA  CB  
CG1 CG2 C   O   N   CA  CB  CG2 OG1 C   O   N   CA  CB  CG  ND1 CE1 NE2 CD2 C   
O   N   CA  CB  CG  CD  NE  CZ  NH1 NH2 C   O   C   O   CA  C1B CB  CC  CD  CE  
CF  CY  N   N   CA  CB  C   O   N   CA  C   O   N   CA  CB  CG  CD1 CD2 C   O   
C   O   CA  C1B CB  CY  N   N   CA  CB  OG  C   O   N   CA  CB  CG  CD  NE  CZ  
NH1 NH2 C   O   N   CA  CB  OG  C   O   N   CA  C   O   N   CA  C   O   N   CA  
CB  CG1 CG2 C   O   N   CA  CB  CG1 CG2 C   O   N   CA  CB  CG  CD  CE  NZ  C   
O   N   CA  CB  CG  OD1 ND2 C   O   N   CA  CB  CG  OD1 ND2 C   O   N   CA  CB  
CG  CD1 CE1 CZ  CE2 CD2 C   O   N   CA  CB  CG1 CG2 C   O   N   CD  CG  CB  CA  
C   O   N   CA  CB  CG2 OG1 C   O   N   CA  CB  CG  OD1 OD2 C   O   N   CA  CB  
CG1 CG2 C   O   N   CA  C   O   N   CD  CG  CB  CA  C   O   N   CA  CB  CG  CD1 
CE1 CZ  CE2 CD2 C   O   N   CA  CB  C   O   N   CA  CB  CG  CD1 CE1 CZ  CE2 CD2 
C   O   N   
%FLAG CHARGE                                                                    
%FORMAT(5E16.8)                                                                 
 -6.67300626E+00  1.08823576E+01 -1.03484442E+01 -7.57501011E+00 -5.01113250E-01
 -9.11115000E-02 -2.57845545E+00 -2.98481274E+00 -6.22838214E+00  2.51467740E+00
 -4.73962023E+00 -2.06640882E+00 -3.59343756E+00 -4.34966301E+00  2.26503189E+00
  1.08841798E+01 -1.03484442E+01 -7.57501011E+00 -1.59445125E+00  5.43935655E+00
 -5.81655816E+00 -5.81655816E+00  1.08841798E+01 -1.03484442E+01 -7.57501011E+00
 -7.08847470E-01  6.65842842E+00 -4.44259674E+00 -1.23200970E+01  1.08841798E+01
 -1.03484442E+01 -7.57501011E+00  3.42579240E-01 -8.41870260E-01 -4.84713180E-01
 -6.94451853E+00  3.74832711E+00 -1.04359112E+01  2.35432116E+00  1.08841798E+01
 -1.03484442E+01 -6.33953817E+00 -4.80522051E+00 -1.27556100E-02  7.10669700E-01
  8.85603780E-01 -9.64870785E+00  1.47163295E+01 -1.57203782E+01 -1.57203782E+01
  1.33769904E+01 -1.07402236E+01  1.48949080E+01 -1.10736917E+01  1.39036149E+00
 -5.51406798E+00 -5.72180220E-01  1.00222650E-01  1.86778575E+00 -4.54828608E+00
 -4.54828608E+00  1.00222650E-01 -1.24585865E+01 -7.57501011E+00  6.14091510E-01
 -3.32556975E+00  1.08841798E+01 -1.03484442E+01 -7.57501011E+00 -4.59201960E-01
  1.08841798E+01 -1.03484442E+01 -7.57501011E+00 -9.43915140E-01 -2.00809746E+00
  6.43429413E+00 -7.50940983E+00 -7.50940983E+00  1.08841798E+01 -1.03484442E+01
  1.48949080E+01 -1.10736917E+01  1.39036149E+00 -5.51406798E+00 -5.72180220E-01
  1.00222650E-01 -1.24585865E+01 -7.57501011E+00 -4.53735270E-01  3.85766091E+00
 -1.19283176E+01  1.08841798E+01 -1.03484442E+01 -6.33953817E+00 -4.80522051E+00
 -1.27556100E-02  7.10669700E-01  8.85603780E-01 -9.64870785E+00  1.47163295E+01
 -1.57203782E+01 -1.57203782E+01  1.33769904E+01 -1.07402236E+01 -7.57501011E+00
 -4.53735270E-01  3.85766091E+00 -1.19283176E+01  1.08841798E+01 -1.03484442E+01
 -7.57501011E+00 -4.59201960E-01  1.08841798E+01 -1.03484442E+01 -7.57501011E+00
 -4.59201960E-01  1.08841798E+01 -1.03484442E+01 -7.57501011E+00 -1.59445125E+00
  5.43935655E+00 -5.81655816E+00 -5.81655816E+00  1.08841798E+01 -1.03484442E+01
 -7.57501011E+00 -1.59445125E+00  5.43935655E+00 -5.81655816E+00 -5.81655816E+00
  1.08841798E+01 -1.03484442E+01 -6.33953817E+00 -4.37335200E+00 -1.71289620E-01
  3.40757010E-01 -8.72848170E-01 -2.60578890E-01 -7.02287442E+00  1.33769904E+01
 -1.07402236E+01 -7.57501011E+00  2.60578890E-01 -3.71917143E+00  1.29924999E+01
 -1.08076461E+01 -1.67481159E+01  1.08841798E+01 -1.03484442E+01 -7.57501011E+00
  2.60578890E-01 -3.71917143E+00  1.29924999E+01 -1.08076461E+01 -1.67481159E+01
  1.08841798E+01 -1.03484442E+01 -7.57501011E+00 -4.37335200E-02 -6.25024890E-01
  2.15023140E-01 -2.28872088E+00 -3.10507992E+00 -1.95343056E+00 -3.10507992E+00
 -2.28872088E+00  1.08841798E+01 -1.03484442E+01 -7.57501011E+00 -1.59445125E+00
  5.43935655E+00 -5.81655816E+00 -5.81655816E+00  1.08841798E+01 -1.03484442E+01
 -4.64304204E+00  3.49868160E-01  3.44401470E-01 -1.27556100E-01 -4.84713180E-01
  1.07438681E+01 -1.04741780E+01 -7.57501011E+00 -7.08847470E-01  6.65842842E+00
 -4.44259674E+00 -1.23200970E+01  1.08841798E+01 -1.03484442E+01 -9.40817349E+00
  6.94269630E-01 -5.52135690E-01  1.45669066E+01 -1.46033512E+01 -1.46033512E+01
  9.77808618E+00 -1.06035564E+01 -7.57501011E+00 -1.59445125E+00  5.43935655E+00
 -5.81655816E+00 -5.81655816E+00  1.08841798E+01 -1.03484442E+01 -7.57501011E+00
 -4.59201960E-01  1.08841798E+01 -1.03484442E+01 -4.64304204E+00  3.49868160E-01
  3.44401470E-01 -1.27556100E-01 -4.84713180E-01  1.07438681E+01 -1.04741780E+01
 -7.57501011E+00 -4.37335200E-02 -6.25024890E-01  2.15023140E-01 -2.28872088E+00
 -3.10507992E+00 -1.95343056E+00 -3.10507992E+00 -2.28872088E+00  1.08841798E+01
 -1.03484442E+01 -7.57501011E+00  6.14091510E-01 -3.32556975E+00  1.08841798E+01
 -1.03484442E+01 -7.57501011E+00 -4.37335200E-02 -6.25024890E-01  2.15023140E-01
 -2.28872088E+00 -3.10507992E+00 -1.95343056E+00 -3.10507992E+00 -2.28872088E+00
  1.08841798E+01 -1.03484442E+01 -8.43692490E+00
%FLAG ATOMIC_NUMBER                                                             
%FORMAT(10I8)                                                                   
       6       6       8       7       6       6       6       6       7       6
       6       6       6       6       6       6       8       7       6       6
       6       6       6       8       7       6       6       6       8       6
       8       7       6       6       6       7       6       7       6       6
       8       7       6       6       6       6       7       6       7       7
       6       8       6       8       6       6       6       6       6       6
       6       6       7       7       6       6       6       8       7       6
       6       8       7       6       6       6       6       6       6       8
       6       8       6       6       6       6       7       7       6       6
       8       6       8       7       6       6       6       6       7       6
       7       7       6       8       7       6       6       8       6       8
       7       6       6       8       7       6       6       8       7       6
       6       6       6       6       8       7       6       6       6       6
       6       8       7       6       6       6       6       6       7       6
       8       7       6       6       6       8       7       6       8       7
       6       6       6       8       7       6       8       7       6       6
       6       6       6       6       6       6       6       8       7       6
       6       6       6       6       8       7       6       6       6       6
       6       8       7       6       6       6       8       6       8       7
       6       6       6       8       8       6       8       7       6       6
       6       6       6       8       7       6       6       8       7       6
       6       6       6       6       8       7       6       6       6       6
       6       6       6       6       6       8       7       6       6       6
       8       7       6       6       6       6       6       6       6       6
       6       8       7
%FLAG MASS                                                                      
%FORMAT(5E16.8)                                                                 
  1.20100000E+01  1.20100000E+01  1.60000000E+01  1.40100000E+01  1.20100000E+01
  1.20100000E+01  1.20100000E+01  1.20100000E+01  1.40100000E+01  1.20100000E+01
  1.20100000E+01  1.20100000E+01  1.20100000E+01  1.20100000E+01  1.20100000E+01
  1.20100000E+01  1.60000000E+01  1.40100000E+01  1.20100000E+01  1.20100000E+01
  1.20100000E+01  1.20100000E+01  1.20100000E+01  1.60000000E+01  1.40100000E+01
  1.20100000E+01  1.20100000E+01  1.20100000E+01  1.60000000E+01  1.20100000E+01
  1.60000000E+01  1.40100000E+01  1.20100000E+01  1.20100000E+01  1.20100000E+01
  1.40100000E+01  1.20100000E+01  1.40100000E+01  1.20100000E+01  1.20100000E+01
  1.60000000E+01  1.40100000E+01  1.20100000E+01  1.20100000E+01  1.20100000E+01
  1.20100000E+01  1.40100000E+01  1.20100000E+01  1.40100000E+01  1.40100000E+01
  1.20100000E+01  1.60000000E+01  1.20100000E+01  1.60000000E+01  1.20100000E+01
  1.20100000E+01  1.20100000E+01  1.20100000E+01  1.20100000E+01  1.20100000E+01
  1.20100000E+01  1.20100000E+01  1.40100000E+01  1.40100000E+01  1.20100000E+01
  1.20100000E+01  1.20100000E+01  1.60000000E+01  1.40100000E+01  1.20100000E+01
  1.20100000E+01  1.60000000E+01  1.40100000E+01  1.20100000E+01  1.20100000E+01
  1.20100000E+01  1.20100000E+01  1.20100000E+01  1.20100000E+01  1.60000000E+01
  1.20100000E+01  1.60000000E+01  1.20100000E+01  1.20100000E+01  1.20100000E+01
  1.20100000E+01  1.40100000E+01  1.40100000E+01  1.20100000E+01  1.20100000E+01
  1.60000000E+01  1.20100000E+01  1.60000000E+01  1.40100000E+01  1.20100000E+01
  1.20100000E+01  1.20100000E+01  1.20100000E+01  1.40100000E+01  1.20100000E+01
  1.40100000E+01  1.40100000E+01  1.20100000E+01  1.60000000E+01  1.40100000E+01
  1.20100000E+01  1.20100000E+01  1.60000000E+01  1.20100000E+01  1.60000000E+01
  1.40100000E+01  1.20100000E+01  1.20100000E+01  1.60000000E+01  1.40100000E+01
  1.20100000E+01  1.20100000E+01  1.60000000E+01  1.40100000E+01  1.20100000E+01
  1.20100000E+01  1.20100000E+01  1.20100000E+01  1.20100000E+01  1.60000000E+01
  1.40100000E+01  1.20100000E+01  1.20100000E+01  1.20100000E+01  1.20100000E+01
  1.20100000E+01  1.60000000E+01  1.40100000E+01  1.20100000E+01  1.20100000E+01
  1.20100000E+01  1.20100000E+01  1.20100000E+01  1.40100000E+01  1.20100000E+01
  1.60000000E+01  1.40100000E+01  1.20100000E+01  1.20100000E+01  1.20100000E+01
  1.60000000E+01  1.40100000E+01  1.20100000E+01  1.60000000E+01  1.40100000E+01
  1.20100000E+01  1.20100000E+01  1.20100000E+01  1.60000000E+01  1.40100000E+01
  1.20100000E+01  1.60000000E+01  1.40100000E+01  1.20100000E+01  1.20100000E+01
  1.20100000E+01  1.20100000E+01  1.20100000E+01  1.20100000E+01  1.20100000E+01
  1.20100000E+01  1.20100000E+01  1.60000000E+01  1.40100000E+01  1.20100000E+01
  1.20100000E+01  1.20100000E+01  1.20100000E+01  1.20100000E+01  1.60000000E+01
  1.40100000E+01  1.20100000E+01  1.20100000E+01  1.20100000E+01  1.20100000E+01
  1.20100000E+01  1.60000000E+01  1.40100000E+01  1.20100000E+01  1.20100000E+01
  1.20100000E+01  1.60000000E+01  1.20100000E+01  1.60000000E+01  1.40100000E+01
  1.20100000E+01  1.20100000E+01  1.20100000E+01  1.60000000E+01  1.60000000E+01
  1.20100000E+01  1.60000000E+01  1.40100000E+01  1.20100000E+01  1.20100000E+01
  1.20100000E+01  1.20100000E+01  1.20100000E+01  1.60000000E+01  1.40100000E+01
  1.20100000E+01  1.20100000E+01  1.60000000E+01  1.40100000E+01  1.20100000E+01
  1.20100000E+01  1.20100000E+01  1.20100000E+01  1.20100000E+01  1.60000000E+01
  1.40100000E+01  1.20100000E+01  1.20100000E+01  1.20100000E+01  1.20100000E+01
  1.20100000E+01  1.20100000E+01  1.20100000E+01  1.20100000E+01  1.20100000E+01
  1.60000000E+01  1.40100000E+01  1.20100000E+01  1.20100000E+01  1.20100000E+01
  1.60000000E+01  1.40100000E+01  1.20100000E+01  1.20100000E+01  1.20100000E+01
  1.20100000E+01  1.20100000E+01  1.20100000E+01  1.20100000E+01  1.20100000E+01
  1.20100000E+01  1.60000000E+01  1.40100000E+01
%FLAG ATOM_TYPE_INDEX                                                           
%FORMAT(10I8)                                                                   
       1       2       3       4       1       1       5       5       6       5
       5       5       5       5       5       2       3       4       1       1
       1       1       2       3       4       1       1       1       7       2
       3       4       1       1       5       6       5       6       5       2
       3       4       1       1       1       1       6       5       6       6
       2       3       2       3       8       8       8       8       8       2
       2       8       4       4       1       1       2       3       4       1
       2       3       4       1       1       1       1       1       2       3
       2       3       8       8       8       8       4       4       1       1
       7       2       3       4       1       1       1       1       6       5
       6       6       2       3       4       1       1       7       2       3
       4       1       2       3       4       1       2       3       4       1
       1       1       1       2       3       4       1       1       1       1
       2       3       4       1       1       1       1       1       6       2
       3       4       1       1       2       3       4       2       3       4
       1       1       2       3       4       2       3       4       1       1
       5       5       5       5       5       5       2       3       4       1
       1       1       1       2       3       4       1       1       1       1
       2       3       4       1       1       1       7       2       3       4
       1       1       5       9       9       2       3       4       1       1
       1       1       2       3       4       1       2       3       4       1
       1       1       1       2       3       4       1       1       5       5
       5       5       5       5       2       3       4       1       1       2
       3       4       1       1       5       5       5       5       5       5
       2       3       4
%FLAG NUMBER_EXCLUDED_ATOMS                                                     
%FORMAT(10I8)                                                                   
       4       5       2       6       8       9       8       5       5       5
       4       3       2       1       1       5       2       7       7       5
       2       1       5       2       7       7       5       2       1       5
       2       6       8       8       5       3       2       1       1       5
       2       6       7       6       4       4       3       2       1       1
       6       2      10       6       7       4       5       4       3       3
       3       3       1       5       5       3       4       2       4       4
       5       2       6       8       6       3       1       1       6       2
      10       6       6       4       3       1       1       6       6       4
       1       5       2       6       7       6       4       4       3       2
       1       1       5       2       6       6       4       1       4       2
       4       4       4       2       4       4       5       2       7       7
       5       2       1       5       2       7       7       5       2       1
       5       2       6       7       6       4       2       1       1       5
       2       6       8       6       3       1       1       5       2       6
       8       6       3       1       1       5       2       6       8       8
       6       4       3       2       1       1       5       2       7       8
       5       2       1       7       3       7       4       3       4       4
       5       2       7       7       5       2       1       5       2       6
       8       6       3       1       1       5       2       7       7       5
       2       1       4       2       4       5       7       3       7       4
       3       4       4       5       2       6       8       8       6       4
       3       2       1       1       5       2       5       5       3       5
       2       6       7       8       6       4       3       2       1       1
       2       1       1
%FLAG NONBONDED_PARM_INDEX                                                      
%FORMAT(10I8)                                                                   
       1       2       4       7      11      16      22      29      37       2
       3       5       8      12      17      23      30      38       4       5
       6       9      13      18      24      31      39       7       8       9
      10      14      19      25      32      40      11      12      13      14
      15      20      26      33      41      16      17      18      19      20
      21      27      34      42      22      23      24      25      26      27
      28      35      43      29      30      31      32      33      34      35
      36      44      37      38      39      40      41      42      43      44
      45
%FLAG RESIDUE_LABEL                                                             
%FORMAT(20a4)                                                                   
ACE TRP VAL THR HID ARG R51 ALA GLY LEU S52 SER ARG SER GLY GLY VAL VAL LYS ASN 
ASN PHE VAL PRO THR ASP VAL GLY PRO PHE ALA PHE NHE 
%FLAG RESIDUE_POINTER                                                           
%FORMAT(10I8)                                                                   
       1       4      18      25      32      42      53      64      69      73
      81      88      94     105     111     115     119     126     133     142
     150     158     169     176     183     190     198     205     209     216
     227     232     243
%FLAG BOND_FORCE_CONSTANT                                                       
%FORMAT(5E16.8)                                                                 
  6.52600000E+02  3.56200000E+02  3.17000000E+02  4.69000000E+02  4.69000000E+02
  4.69000000E+02  4.47000000E+02  4.28000000E+02  4.27000000E+02  5.46000000E+02
  3.88000000E+02  3.17000000E+02  3.10000000E+02  3.17000000E+02  3.37000000E+02
  3.10000000E+02  3.10000000E+02  3.20000000E+02  4.10000000E+02  4.88000000E+02
  4.77000000E+02  4.22000000E+02  5.12000000E+02  3.17000000E+02  4.81000000E+02
  3.37000000E+02  3.10000000E+02  3.10000000E+02  2.32500000E+02  2.50300000E+02
  3.78600000E+02  2.32500000E+02  2.63800000E+02  2.43200000E+02  3.10000000E+02
  3.10000000E+02  3.20000000E+02  3.67000000E+02  3.17000000E+02  3.17000000E+02
  3.10000000E+02  3.37000000E+02  6.56000000E+02  3.17000000E+02
%FLAG BOND_EQUIL_VALUE                                                          
%FORMAT(5E16.8)                                                                 
  1.21800000E+00  1.37900000E+00  1.52200000E+00  1.40400000E+00  1.40000000E+00
  1.40000000E+00  1.41900000E+00  1.38000000E+00  1.38100000E+00  1.35200000E+00
  1.45900000E+00  1.49500000E+00  1.52600000E+00  1.52200000E+00  1.44900000E+00
  1.52600000E+00  1.52600000E+00  1.41000000E+00  1.39400000E+00  1.33500000E+00
  1.34300000E+00  1.38500000E+00  1.37500000E+00  1.50400000E+00  1.34000000E+00
  1.46300000E+00  1.52600000E+00  1.52600000E+00  1.53800000E+00  1.51600000E+00
  1.39800000E+00  1.53800000E+00  1.46200000E+00  1.52400000E+00  1.52600000E+00
  1.52600000E+00  1.41000000E+00  1.47100000E+00  1.52200000E+00  1.51000000E+00
  1.52600000E+00  1.44900000E+00  1.25000000E+00  1.52200000E+00
%FLAG ANGLE_FORCE_CONSTANT                                                      
%FORMAT(5E16.8)                                                                 
  1.13800000E+02  5.00000000E+01  8.00000000E+01  7.00000000E+01  6.30000000E+01
  6.30000000E+01  6.30000000E+01  6.30000000E+01  6.30000000E+01  7.00000000E+01
  7.00000000E+01  6.30000000E+01  7.00000000E+01  7.00000000E+01  6.30000000E+01
  6.30000000E+01  6.30000000E+01  7.00000000E+01  7.00000000E+01  6.30000000E+01
  8.00000000E+01  7.00000000E+01  8.00000000E+01  6.30000000E+01  4.00000000E+01
  6.30000000E+01  4.00000000E+01  8.00000000E+01  5.00000000E+01  5.00000000E+01
  7.00000000E+01  7.00000000E+01  7.00000000E+01  7.00000000E+01  7.00000000E+01
  7.00000000E+01  7.00000000E+01  6.30000000E+01  6.53000000E+01  7.00000000E+01
  5.00000000E+01  8.00000000E+01  6.30000000E+01  4.00000000E+01  4.00000000E+01
  8.00000000E+01  6.49000000E+01  6.55500000E+01  6.59000000E+01  8.32000000E+01
  6.49000000E+01  8.43000000E+01  6.49000000E+01  8.46000000E+01  6.53000000E+01
  8.45000000E+01  6.30000000E+01  4.00000000E+01  4.00000000E+01  8.00000000E+01
  5.00000000E+01  8.00000000E+01  8.00000000E+01  7.00000000E+01  6.30000000E+01
  7.00000000E+01  6.30000000E+01  5.00000000E+01  4.00000000E+01  5.00000000E+01
  4.00000000E+01  8.00000000E+01  8.00000000E+01  7.00000000E+01  6.30000000E+01
%FLAG ANGLE_EQUIL_VALUE                                                         
%FORMAT(5E16.8)                                                                 
  2.14762857E+00  2.12755727E+00  2.10137732E+00  2.03505478E+00  2.09439600E+00
  2.09439600E+00  2.14151991E+00  2.09439600E+00  2.02807346E+00  2.31779824E+00
  1.82212452E+00  1.85703112E+00  1.94778828E+00  1.89717371E+00  1.89891904E+00
  2.35445017E+00  1.93906163E+00  2.18166250E+00  2.24449438E+00  2.01760148E+00
  2.10137732E+00  2.03505478E+00  1.91462701E+00  1.92160833E+00  1.91113635E+00
  1.93906163E+00  1.91113635E+00  1.91462701E+00  1.91113635E+00  1.91113635E+00
  2.04203610E+00  2.09439600E+00  2.09439600E+00  2.09439600E+00  2.09439600E+00
  2.09439600E+00  2.09439600E+00  1.97396823E+00  2.10643878E+00  2.09439600E+00
  2.15024656E+00  1.94080696E+00  1.93906163E+00  1.91113635E+00  1.91113635E+00
  1.91462701E+00  1.94621748E+00  1.95599133E+00  2.10783504E+00  1.94796281E+00
  1.94621748E+00  2.01027109E+00  1.94621748E+00  2.15024656E+00  1.93801443E+00
  1.90345690E+00  1.93906163E+00  1.91113635E+00  1.91113635E+00  1.91462701E+00
  1.91113635E+00  1.94080696E+00  2.10137732E+00  2.03505478E+00  1.93906163E+00
  2.09439600E+00  1.98967620E+00  2.12755727E+00  1.91113635E+00  2.05948940E+00
  1.91113635E+00  1.91462701E+00  2.19911580E+00  2.04203610E+00  1.93906163E+00
%FLAG DIHEDRAL_FORCE_CONSTANT                                                   
%FORMAT(5E16.8)                                                                 
  2.50000000E+00  0.00000000E+00  0.00000000E+00  0.00000000E+00  0.00000000E+00
  3.62500000E+00  3.00000000E+00  3.50000000E+00  6.52500000E+00  1.67500000E+00
  1.52500000E+00  1.70000000E-02  3.53000000E-01  2.34000000E-01  7.40000000E-02
  1.50000000E+00  3.65000000E-01  4.08000000E-01  8.19000000E-01  9.50000000E-02
  7.90000000E-02  3.13000000E-01  3.10000000E-02  0.00000000E+00  0.00000000E+00
  0.00000000E+00  4.06000000E-01  2.89000000E-01  1.48000000E-01  1.12000000E-01
  3.37000000E-01  2.16000000E-01  1.00000000E-03  6.97000000E-01  1.19000000E-01
  3.15000000E-01  1.56000000E-01  6.74000000E-01  6.00000000E-03  9.50000000E-02
  1.40000000E+00  5.15000000E+00  5.00000000E+00  1.43000000E-01  2.44000000E-01
  2.19000000E-01  2.50000000E-02  2.32500000E+00  2.40000000E+00  1.60000000E-01
  3.92000000E-01  6.86000000E-01  3.70000000E-02  6.74000000E-01  7.50000000E-01
  1.22000000E-01  1.00000000E-02  3.06000000E-01  2.21000000E-01  8.90000000E-02
  6.40000000E-01  3.90000000E-01  1.02000000E+00  1.70000000E-01  1.00000000E-01
  1.55555556E-01  2.00000000E-01  2.50000000E-01  1.80000000E-01  1.00000000E-01
  2.12000000E+00  1.10000000E-01  2.90000000E-01  1.30000000E-01  1.61111111E-01
  2.65000000E-01  3.66250000E+00  1.00000000E-01  7.10000000E-01  0.00000000E+00
  2.70000000E-01  7.06000000E-01  6.20000000E-01  1.44000000E-01  1.90000000E-01
  3.79000000E-01  2.70000000E-02  1.42000000E-01  1.79000000E-01  9.80000000E-02
  2.59000000E-01  7.30000000E-02  6.61000000E-01  2.18000000E-01  4.01000000E-01
  1.29000000E-01  6.66000000E-01  2.46000000E-01  1.60000000E-01  1.04600000E+00
  3.03000000E-01  3.30000000E-02  1.07000000E-01  8.28000000E-01  4.85000000E-01
  3.01000000E-01  8.00000000E-03  6.88000000E-01  2.97000000E-01  5.90000000E-02
  5.50000000E-02  4.69000000E-01  1.92000000E-01  1.20000000E-02  6.90000000E-02
  4.80000000E-02  1.20000000E-02  7.00000000E-03  2.00000000E+00  2.00000000E+00
  4.00000000E-01  4.24000000E-01  4.59000000E-01  5.80000000E-02  1.54000000E-01
  7.69000000E-01  3.10000000E-02  2.15400000E+00  6.47000000E-01  1.05000000E+01
  0.00000000E+00  1.10000000E+00  1.00000000E+00
%FLAG DIHEDRAL_PERIODICITY                                                      
%FORMAT(5E16.8)                                                                 
  2.00000000E+00  1.00000000E+00  2.00000000E+00  3.00000000E+00  4.00000000E+00
  2.00000000E+00  2.00000000E+00  2.00000000E+00  2.00000000E+00  2.00000000E+00
  2.00000000E+00  1.00000000E+00  2.00000000E+00  3.00000000E+00  4.00000000E+00
  2.00000000E+00  1.00000000E+00  2.00000000E+00  3.00000000E+00  4.00000000E+00
  1.00000000E+00  2.00000000E+00  4.00000000E+00  1.00000000E+00  2.00000000E+00
  3.00000000E+00  1.00000000E+00  2.00000000E+00  3.00000000E+00  4.00000000E+00
  1.00000000E+00  2.00000000E+00  4.00000000E+00  1.00000000E+00  2.00000000E+00
  3.00000000E+00  4.00000000E+00  1.00000000E+00  2.00000000E+00  4.00000000E+00
  2.00000000E+00  2.00000000E+00  2.00000000E+00  1.00000000E+00  2.00000000E+00
  3.00000000E+00  4.00000000E+00  2.00000000E+00  2.00000000E+00  1.00000000E+00
  2.00000000E+00  3.00000000E+00  4.00000000E+00  1.00000000E+00  2.00000000E+00
  3.00000000E+00  4.00000000E+00  1.00000000E+00  2.00000000E+00  4.00000000E+00
  1.00000000E+00  2.00000000E+00  1.00000000E+00  3.00000000E+00  4.00000000E+00
  3.00000000E+00  1.00000000E+00  2.00000000E+00  3.00000000E+00  1.00000000E+00
  2.00000000E+00  1.00000000E+00  2.00000000E+00  3.00000000E+00  3.00000000E+00
  2.00000000E+00  2.00000000E+00  3.00000000E+00  2.00000000E+00  4.00000000E+00
  2.00000000E+00  1.00000000E+00  2.00000000E+00  3.00000000E+00  4.00000000E+00
  1.00000000E+00  2.00000000E+00  3.00000000E+00  4.00000000E+00  1.00000000E+00
  2.00000000E+00  4.00000000E+00  1.00000000E+00  2.00000000E+00  3.00000000E+00
  4.00000000E+00  1.00000000E+00  2.00000000E+00  4.00000000E+00  1.00000000E+00
  2.00000000E+00  3.00000000E+00  4.00000000E+00  1.00000000E+00  2.00000000E+00
  3.00000000E+00  4.00000000E+00  1.00000000E+00  2.00000000E+00  4.00000000E+00
  1.00000000E+00  2.00000000E+00  3.00000000E+00  4.00000000E+00  2.00000000E+00
  4.00000000E+00  1.00000000E+00  4.00000000E+00  1.00000000E+00  2.00000000E+00
  3.00000000E+00  1.00000000E+00  2.00000000E+00  3.00000000E+00  4.00000000E+00
  2.00000000E+00  4.00000000E+00  1.00000000E+00  2.00000000E+00  2.00000000E+00
  2.00000000E+00  2.00000000E+00  2.00000000E+00
%FLAG DIHEDRAL_PHASE                                                            
%FORMAT(5E16.8)                                                                 
  3.14159400E+00  0.00000000E+00  0.00000000E+00  0.00000000E+00  0.00000000E+00
  3.14159400E+00  3.14159400E+00  3.14159400E+00  3.14159400E+00  3.14159400E+00
  3.14159400E+00  3.14159400E+00  3.14159400E+00  0.00000000E+00  0.00000000E+00
  3.14159400E+00  0.00000000E+00  0.00000000E+00  0.00000000E+00  3.14159400E+00
  0.00000000E+00  3.14159400E+00  0.00000000E+00  3.14159400E+00  3.14159400E+00
  3.14159400E+00  3.14159400E+00  3.14159400E+00  0.00000000E+00  0.00000000E+00
  0.00000000E+00  3.14159400E+00  3.14159400E+00  3.14159400E+00  3.14159400E+00
  0.00000000E+00  0.00000000E+00  0.00000000E+00  0.00000000E+00  0.00000000E+00
  3.14159400E+00  3.14159400E+00  3.14159400E+00  3.14159400E+00  3.14159400E+00
  0.00000000E+00  0.00000000E+00  3.14159400E+00  3.14159400E+00  3.14159400E+00
  3.14159400E+00  0.00000000E+00  3.14159400E+00  3.14159400E+00  0.00000000E+00
  3.14159400E+00  3.14159400E+00  3.14159400E+00  3.14159400E+00  0.00000000E+00
  0.00000000E+00  3.14159400E+00  3.14159400E+00  0.00000000E+00  3.14159400E+00
  0.00000000E+00  3.14159400E+00  3.14159400E+00  0.00000000E+00  3.14159400E+00
  3.14159400E+00  0.00000000E+00  3.14159400E+00  0.00000000E+00  0.00000000E+00
  3.14159400E+00  3.14159400E+00  0.00000000E+00  3.14159400E+00  3.14159400E+00
  3.14159400E+00  0.00000000E+00  3.14159400E+00  0.00000000E+00  0.00000000E+00
  0.00000000E+00  3.14159400E+00  0.00000000E+00  0.00000000E+00  0.00000000E+00
  3.14159400E+00  0.00000000E+00  3.14159400E+00  3.14159400E+00  0.00000000E+00
  0.00000000E+00  0.00000000E+00  3.14159400E+00  0.00000000E+00  0.00000000E+00
  3.14159400E+00  0.00000000E+00  0.00000000E+00  3.14159400E+00  3.14159400E+00
  3.14159400E+00  0.00000000E+00  3.14159400E+00  3.14159400E+00  0.00000000E+00
  0.00000000E+00  3.14159400E+00  0.00000000E+00  3.14159400E+00  3.14159400E+00
  3.14159400E+00  3.14159400E+00  3.14159400E+00  0.00000000E+00  0.00000000E+00
  0.00000000E+00  0.00000000E+00  3.14159400E+00  0.00000000E+00  0.00000000E+00
  3.14159400E+00  3.14159400E+00  3.14159400E+00  3.14159400E+00  3.14159400E+00
  3.14159400E+00  3.14159400E+00  3.14159400E+00
%FLAG SCEE_SCALE_FACTOR                                                         
%FORMAT(5E16.8)                                                                 
  1.20000000E+00  1.20000000E+00  1.20000000E+00  1.20000000E+00  1.20000000E+00
  1.20000000E+00  1.20000000E+00  1.20000000E+00  1.20000000E+00  1.20000000E+00
  1.20000000E+00  1.20000000E+00  1.20000000E+00  1.20000000E+00  1.20000000E+00
  1.20000000E+00  1.20000000E+00  1.20000000E+00  1.20000000E+00  1.20000000E+00
  1.20000000E+00  1.20000000E+00  1.20000000E+00  1.20000000E+00  1.20000000E+00
  1.20000000E+00  1.20000000E+00  1.20000000E+00  1.20000000E+00  1.20000000E+00
  1.20000000E+00  1.20000000E+00  1.20000000E+00  1.20000000E+00  1.20000000E+00
  1.20000000E+00  1.20000000E+00  1.20000000E+00  1.20000000E+00  1.20000000E+00
  1.20000000E+00  1.20000000E+00  1.20000000E+00  1.20000000E+00  1.20000000E+00
  1.20000000E+00  1.20000000E+00  1.20000000E+00  1.20000000E+00  1.20000000E+00
  1.20000000E+00  1.20000000E+00  1.20000000E+00  1.20000000E+00  1.20000000E+00
  1.20000000E+00  1.20000000E+00  1.20000000E+00  1.20000000E+00  1.20000000E+00
  1.20000000E+00  1.20000000E+00  1.20000000E+00  1.20000000E+00  1.20000000E+00
  1.20000000E+00  1.20000000E+00  1.20000000E+00  1.20000000E+00  1.20000000E+00
  1.20000000E+00  1.20000000E+00  1.20000000E+00  1.20000000E+00  1.20000000E+00
  1.20000000E+00  1.20000000E+00  1.20000000E+00  1.20000000E+00  1.20000000E+00
  1.20000000E+00  1.20000000E+00  1.20000000E+00  1.20000000E+00  1.20000000E+00
  1.20000000E+00  1.20000000E+00  1.20000000E+00  1.20000000E+00  1.20000000E+00
  1.20000000E+00  1.20000000E+00  1.20000000E+00  1.20000000E+00  1.20000000E+00
  1.20000000E+00  1.20000000E+00  1.20000000E+00  1.20000000E+00  1.20000000E+00
  1.20000000E+00  1.20000000E+00  1.20000000E+00  1.20000000E+00  1.20000000E+00
  1.20000000E+00  1.20000000E+00  1.20000000E+00  1.20000000E+00  1.20000000E+00
  1.20000000E+00  1.20000000E+00  1.20000000E+00  1.20000000E+00  1.20000000E+00
  1.20000000E+00  1.20000000E+00  1.20000000E+00  1.20000000E+00  1.20000000E+00
  1.20000000E+00  1.20000000E+00  1.20000000E+00  1.20000000E+00  1.20000000E+00
  1.20000000E+00  1.20000000E+00  1.20000000E+00  1.20000000E+00  0.00000000E+00
  0.00000000E+00  0.00000000E+00  0.00000000E+00
%FLAG SCNB_SCALE_FACTOR                                                         
%FORMAT(5E16.8)                                                                 
  2.00000000E+00  2.00000000E+00  2.00000000E+00  2.00000000E+00  2.00000000E+00
  2.00000000E+00  2.00000000E+00  2.00000000E+00  2.00000000E+00  2.00000000E+00
  2.00000000E+00  2.00000000E+00  2.00000000E+00  2.00000000E+00  2.00000000E+00
  2.00000000E+00  2.00000000E+00  2.00000000E+00  2.00000000E+00  2.00000000E+00
  2.00000000E+00  2.00000000E+00  2.00000000E+00  2.00000000E+00  2.00000000E+00
  2.00000000E+00  2.00000000E+00  2.00000000E+00  2.00000000E+00  2.00000000E+00
  2.00000000E+00  2.00000000E+00  2.00000000E+00  2.00000000E+00  2.00000000E+00
  2.00000000E+00  2.00000000E+00  2.00000000E+00  2.00000000E+00  2.00000000E+00
  2.00000000E+00  2.00000000E+00  2.00000000E+00  2.00000000E+00  2.00000000E+00
  2.00000000E+00  2.00000000E+00  2.00000000E+00  2.00000000E+00  2.00000000E+00
  2.00000000E+00  2.00000000E+00  2.00000000E+00  2.00000000E+00  2.00000000E+00
  2.00000000E+00  2.00000000E+00  2.00000000E+00  2.00000000E+00  2.00000000E+00
  2.00000000E+00  2.00000000E+00  2.00000000E+00  2.00000000E+00  2.00000000E+00
  2.00000000E+00  2.00000000E+00  2.00000000E+00  2.00000000E+00  2.00000000E+00
  2.00000000E+00  2.00000000E+00  2.00000000E+00  2.00000000E+00  2.00000000E+00
  2.00000000E+00  2.00000000E+00  2.00000000E+00  2.00000000E+00  2.00000000E+00
  2.00000000E+00  2.00000000E+00  2.00000000E+00  2.00000000E+00  2.00000000E+00
  2.00000000E+00  2.00000000E+00  2.00000000E+00  2.00000000E+00  2.00000000E+00
  2.00000000E+00  2.00000000E+00  2.00000000E+00  2.00000000E+00  2.00000000E+00
  2.00000000E+00  2.00000000E+00  2.00000000E+00  2.00000000E+00  2.00000000E+00
  2.00000000E+00  2.00000000E+00  2.00000000E+00  2.00000000E+00  2.00000000E+00
  2.00000000E+00  2.00000000E+00  2.00000000E+00  2.00000000E+00  2.00000000E+00
  2.00000000E+00  2.00000000E+00  2.00000000E+00  2.00000000E+00  2.00000000E+00
  2.00000000E+00  2.00000000E+00  2.00000000E+00  2.00000000E+00  2.00000000E+00
  2.00000000E+00  2.00000000E+00  2.00000000E+00  2.00000000E+00  2.00000000E+00
  2.00000000E+00  2.00000000E+00  2.00000000E+00  2.00000000E+00  0.00000000E+00
  0.00000000E+00  0.00000000E+00  0.00000000E+00
%FLAG SOLTY                                                                     
%FORMAT(5E16.8)                                                                 
  0.00000000E+00  0.00000000E+00  0.00000000E+00  0.00000000E+00  0.00000000E+00
  0.00000000E+00  0.00000000E+00  0.00000000E+00  0.00000000E+00  0.00000000E+00
  0.00000000E+00  0.00000000E+00  0.00000000E+00  0.00000000E+00  0.00000000E+00
  0.00000000E+00  0.00000000E+00  0.00000000E+00  0.00000000E+00  0.00000000E+00
  0.00000000E+00  0.00000000E+00  0.00000000E+00  0.00000000E+00  0.00000000E+00
  0.00000000E+00  0.00000000E+00  0.00000000E+00  0.00000000E+00  0.00000000E+00
  0.00000000E+00  0.00000000E+00  0.00000000E+00  0.00000000E+00  0.00000000E+00
  0.00000000E+00  0.00000000E+00  0.00000000E+00  0.00000000E+00
%FLAG LENNARD_JONES_ACOEF                                                       
%FORMAT(5E16.8)                                                                 
  1.04308023E+06  8.53193737E+05  6.96551276E+05  6.37913494E+05  5.17507491E+05
  3.76435470E+05  8.61458248E+05  7.01106848E+05  5.15491878E+05  7.02078680E+05
  9.24822270E+05  7.56463928E+05  5.65590822E+05  7.63791460E+05  8.19971662E+05
  9.95480466E+05  8.11497350E+05  5.99897901E+05  8.14793385E+05  8.82619071E+05
  9.44293233E+05  7.91544157E+05  6.42430744E+05  4.68011805E+05  6.40405042E+05
  7.01803794E+05  7.44975864E+05  5.81803229E+05  1.03184851E+06  8.43969952E+05
  6.30925504E+05  8.52084164E+05  9.14863930E+05  9.84684600E+05  7.82881336E+05
  1.02073671E+06  6.47841731E+05  5.24402060E+05  3.78641356E+05  5.20462539E+05
  5.74393458E+05  6.06829342E+05  4.71003287E+05  6.40712560E+05  3.79876399E+05
%FLAG LENNARD_JONES_BCOEF                                                       
%FORMAT(5E16.8)                                                                 
  6.75612247E+02  5.95658566E+02  5.24668528E+02  5.68167388E+02  4.98871431E+02
  4.69350655E+02  6.78964813E+02  5.97113873E+02  5.64804067E+02  6.77820248E+02
  5.99015525E+02  5.28126496E+02  5.03752097E+02  6.01987997E+02  5.31102864E+02
  7.36907417E+02  6.48597119E+02  6.15165511E+02  7.37244936E+02  6.53361429E+02
  8.01323529E+02  6.93079947E+02  6.08686716E+02  5.73100668E+02  6.89389438E+02
  6.14502845E+02  7.50714425E+02  6.99746810E+02  6.69494459E+02  5.90251928E+02
  5.62969425E+02  6.72777963E+02  5.93591333E+02  7.30206155E+02  6.86742760E+02
  6.63431737E+02  6.26720080E+02  5.49675335E+02  5.15240418E+02  6.21191325E+02
  5.55666448E+02  6.77220874E+02  6.29300710E+02  6.20970728E+02  5.64885984E+02
%FLAG BONDS_INC_HYDROGEN                                                        
%FORMAT(10I8)                                                                   

%FLAG BONDS_WITHOUT_HYDROGEN                                                    
%FORMAT(10I8)                                                                   
       3       6       1       3       9       2       0       3       3      45
      48       1      45      51       2      39      42       4      36      39
       5      33      36       5      30      33       5      27      30       6
      27      42       7      24      27       8      21      24       9      18
      21      10      18      42      11      15      18      12      12      15
      13      12      45      14       9      12      15      66      69       1
      66      72       2      57      60      16      57      63      16      54
      57      17      54      66      14      51      54      15      87      90
       1      87      93       2      78      81      16      78      84      18
      75      78      17      75      87      14      72      75      15     117
     120       1     117     123       2     111     114      19     108     111
      20     105     108      21     102     105      22     102     114      23
      99     102      24      96      99      13      96     117      14      93
      96      15     150     153       1     150     186       2     141     144
      25     141     147      25     138     141      25     135     138      26
     132     135      27     129     132      27     126     129      28     126
     150      14     123     126      15     183     255      29     180     183
      30     177     180      31     174     177      30     171     174      29
     168     171      29     162     165      32     162     168      32     162
     186      33     156     159       1     156     162      34     156     189
       2     198     201       1     198     204       2     192     195      13
     192     198      14     189     192      15     210     213       1     210
     216       2     207     210      14     204     207      15     234     237
       1     234     258       2     225     228      16     225     231      16
     222     225      35     219     222      36     219     234      14     216
     219      15     252     255      29     246     249      32     246     252
      32     246     258      33     240     243       1     240     246      34
     240     261       2     273     276       1     273     279       2     267
     270      37     264     267      36     264     273      14     261     264
      15     306     309       1     306     312       2     297     300      25
     297     303      25     294     297      25     291     294      26     288
     291      27     285     288      27     282     285      28     282     306
      14     279     282      15     324     327       1     324     330       2
     318     321      37     315     318      36     315     324      14     312
     315      15     336     339       1     336     342       2     333     336
      14     330     333      15     348     351       1     348     354       2
     345     348      14     342     345      15     369     372       1     369
     375       2     360     363      16     360     366      16     357     360
      17     357     369      14     354     357      15     390     393       1
     390     396       2     381     384      16     381     387      16     378
     381      17     378     390      14     375     378      15     417     420
       1     417     423       2     411     414      38     408     411      27
     405     408      27     402     405      27     399     402      28     399
     417      14     396     399      15     441     444       1     441     447
       2     432     435       1     432     438       2     429     432      39
     426     429      36     426     441      14     423     426      15     465
     468       1     465     471       2     456     459       1     456     462
       2     453     456      39     450     453      36     450     465      14
     447     450      15     498     501       1     498     504       2     492
     495       5     489     492       5     486     489       5     483     486
       5     480     483       5     480     495       5     477     480      40
     474     477      13     474     498      14     471     474      15     519
     522       1     519     525       2     510     513      16     510     516
      16     507     510      17     507     519      14     504     507      15
     540     543       1     540     546       2     537     540      14     534
     537      13     531     534      41     528     531      41     525     528
      42     525     537      15     561     564       1     561     567       2
     552     555      16     552     558      18     549     552      17     549
     561      14     546     549      15     585     588       1     585     591
       2     576     579      43     576     582      43     573     576      44
     570     573      36     570     585      14     567     570      15     606
     609       1     606     612       2     597     600      16     597     603
      16     594     597      17     594     606      14     591     594      15
     618     621       1     618     624       2     615     618      14     612
     615      15     639     642       1     639     645       2     636     639
      14     633     636      13     630     633      41     627     630      41
     624     627      42     624     636      15     672     675       1     672
     678       2     666     669       5     663     666       5     660     663
       5     657     660       5     654     657       5     654     669       5
     651     654      40     648     651      13     648     672      14     645
     648      15     687     690       1     687     693       2     681     684
      13     681     687      14     678     681      15     720     723       1
     720     726       2     714     717       5     711     714       5     708
     711       5     705     708       5     702     705       5     702     717
       5     699     702      40     696     699      13     696     720      14
     693     696      15
%FLAG ANGLES_INC_HYDROGEN                                                       
%FORMAT(10I8)                                                                   

%FLAG ANGLES_WITHOUT_HYDROGEN                                                   
%FORMAT(10I8)                                                                   
       6       3       9       1       3       9      12       2       0       3
       6       3       0       3       9       4      48      45      51       1
      45      51      54       2      36      39      42       5      33      36
      39       6      30      27      42       7      30      33      36       6
      27      30      33       8      27      42      39       9      24      27
      30      10      24      27      42      11      21      18      42      12
      21      24      27      13      18      21      24      14      18      42
      27      15      18      42      39      16      15      12      45      17
      15      18      21      18      15      18      42      19      12      15
      18      20      12      45      48      21      12      45      51      22
       9      12      15      23       9      12      45      24      69      66
      72       1      66      72      75       2      60      57      63      25
      57      54      66      26      54      57      60      27      54      57
      63      27      54      66      69      21      54      66      72      22
      51      54      57      28      51      54      66      24      90      87
      93       1      87      93      96       2      81      78      84      29
      78      75      87      26      75      78      81      27      75      78
      84      30      75      87      90      21      75      87      93      22
      72      75      78      28      72      75      87      24     120     117
     123       1     117     123     126       2     108     111     114      31
     105     102     114      32     105     108     111      33     102     105
     108      34     102     114     111      35      99      96     117      17
      99     102     105      36      99     102     114      37      96      99
     102      38      96     117     120      21      96     117     123      22
      93      96      99      23      93      96     117      24     153     150
     186       1     150     186     162      39     144     141     147      40
     138     141     144      40     138     141     147      40     135     138
     141      41     132     135     138      42     129     126     150      43
     129     132     135      44     126     129     132      45     126     150
     153      21     126     150     186      22     123     126     129      46
     123     126     150      24     183     255     252      47     180     183
     255      48     177     180     183      49     174     177     180      49
     171     174     177      48     168     162     186      50     168     171
     174      47     165     162     168      51     165     162     186      50
     162     156     189      52     162     168     171      53     159     156
     162      54     159     156     189       1     156     162     165      55
     156     162     168      55     156     162     186      56     156     189
     192       2     201     198     204       1     198     204     207       2
     195     192     198      17     192     198     201      21     192     198
     204      22     189     192     195      23     189     192     198      24
     213     210     216       1     210     216     219       2     207     210
     213      21     207     210     216      22     204     207     210      24
     237     234     258       1     234     258     246      39     228     225
     231      25     222     219     234      57     222     225     228      58
     222     225     231      58     219     222     225      59     219     234
     237      21     219     234     258      22     216     219     222      60
     216     219     234      24     252     246     258      50     249     246
     252      51     249     246     258      50     246     240     261      52
     246     252     255      53     243     240     246      54     243     240
     261       1     240     246     249      55     240     246     252      55
     240     246     258      56     240     261     264       2     276     273
     279       1     273     279     282       2     267     264     273      57
     264     267     270      61     264     273     276      21     264     273
     279      22     261     264     267      60     261     264     273      24
     309     306     312       1     306     312     315       2     300     297
     303      40     294     297     300      40     294     297     303      40
     291     294     297      41     288     291     294      42     285     282
     306      43     285     288     291      44     282     285     288      45
     282     306     309      21     282     306     312      22     279     282
     285      46     279     282     306      24     327     324     330       1
     324     330     333       2     318     315     324      57     315     318
     321      61     315     324     327      21     315     324     330      22
     312     315     318      60     312     315     324      24     339     336
     342       1     336     342     345       2     333     336     339      21
     333     336     342      22     330     333     336      24     351     348
     354       1     348     354     357       2     345     348     351      21
     345     348     354      22     342     345     348      24     372     369
     375       1     369     375     378       2     363     360     366      25
     360     357     369      26     357     360     363      27     357     360
     366      27     357     369     372      21     357     369     375      22
     354     357     360      28     354     357     369      24     393     390
     396       1     390     396     399       2     384     381     387      25
     381     378     390      26     378     381     384      27     378     381
     387      27     378     390     393      21     378     390     396      22
     375     378     381      28     375     378     390      24     420     417
     423       1     417     423     426       2     408     411     414      62
     405     408     411      44     402     399     417      43     402     405
     408      44     399     402     405      45     399     417     420      21
     399     417     423      22     396     399     402      46     396     399
     417      24     444     441     447       1     441     447     450       2
     435     432     438       1     429     426     441      57     429     432
     435      63     429     432     438      64     426     429     432      65
     426     441     444      21     426     441     447      22     423     426
     429      60     423     426     441      24     468     465     471       1
     465     471     474       2     459     456     462       1     453     450
     465      57     453     456     459      63     453     456     462      64
     450     453     456      65     450     465     468      21     450     465
     471      22     447     450     453      60     447     450     465      24
     501     498     504       1     498     504     507       2     489     492
     495       6     486     489     492       6     483     480     495       6
     483     486     489       6     480     483     486       6     480     495
     492       6     477     474     498      17     477     480     483      66
     477     480     495      66     474     477     480      67     474     498
     501      21     474     498     504      22     471     474     477      23
     471     474     498      24     522     519     525       1     519     525
     528      68     519     525     537       2     513     510     516      25
     510     507     519      26     507     510     513      27     507     510
     516      27     507     519     522      21     507     519     525      22
     504     507     510      28     504     507     519      24     543     540
     546       1     540     546     549       2     537     540     543      21
     537     540     546      22     534     537     540      17     531     534
     537      69     528     525     537      70     528     531     534      71
     525     528     531      72     525     537     534      23     525     537
     540      24     564     561     567       1     561     567     570       2
     555     552     558      29     552     549     561      26     549     552
     555      27     549     552     558      30     549     561     564      21
     549     561     567      22     546     549     552      28     546     549
     561      24     588     585     591       1     585     591     594       2
     579     576     582      73     573     570     585      57     573     576
     579      74     573     576     582      74     570     573     576      75
     570     585     588      21     570     585     591      22     567     570
     573      60     567     570     585      24     609     606     612       1
     606     612     615       2     600     597     603      25     597     594
     606      26     594     597     600      27     594     597     603      27
     594     606     609      21     594     606     612      22     591     594
     597      28     591     594     606      24     621     618     624       1
     618     624     627      68     618     624     636       2     615     618
     621      21     615     618     624      22     612     615     618      24
     642     639     645       1     639     645     648       2     636     639
     642      21     636     639     645      22     633     636     639      17
     630     633     636      69     627     624     636      70     627     630
     633      71     624     627     630      72     624     636     633      23
     624     636     639      24     675     672     678       1     672     678
     681       2     663     666     669       6     660     663     666       6
     657     654     669       6     657     660     663       6     654     657
     660       6     654     669     666       6     651     648     672      17
     651     654     657      66     651     654     669      66     648     651
     654      67     648     672     675      21     648     672     678      22
     645     648     651      23     645     648     672      24     690     687
     693       1     687     693     696       2     684     681     687      17
     681     687     690      21     681     687     693      22     678     681
     684      23     678     681     687      24     723     720     726       1
     711     714     717       6     708     711     714       6     705     702
     717       6     705     708     711       6     702     705     708       6
     702     717     714       6     699     696     720      17     699     702
     705      66     699     702     717      66     696     699     702      67
     696     720     723      21     696     720     726      22     693     696
     699      23     693     696     720      24
%FLAG DIHEDRALS_INC_HYDROGEN                                                    
%FORMAT(10I8)                                                                   

%FLAG DIHEDRALS_WITHOUT_HYDROGEN                                                
%FORMAT(10I8)                                                                   
       6       3       9      12       1       3       9      12      15       2
       3       9     -12      15       3       3       9     -12      15       4
       3       9     -12      15       5       3       9      12      45       2
       3       9     -12      45       3       3       9     -12      45       4
       3       9     -12      45       5       0       3       9      12       1
      48      45      51      54       1      45      51      54      57       2
      45      51     -54      57       3      45      51     -54      57       4
      45      51     -54      57       5      45      51      54      66       2
      45      51     -54      66       3      45      51     -54      66       4
      45      51     -54      66       5      33      30      27      42       6
      33      36     -39      42       6      30      27      42      39       7
      30      33     -36      39       6      27      30      33      36       6
      27      42     -39      36       8      24      21     -18      42       9
      24      27      30      33       6      24      27      42      39       7
      21      18     -42      27      10      21      18      42      39      10
      21      24      27      30      11      21      24     -27      42      11
      18      15      12      45      12      18      15     -12      45      13
      18      15     -12      45      14      18      15     -12      45      15
      18      21     -24      27      16      18      42     -27      24       7
      18      42      27      30       7      18      42      39      36       8
      15      12      45      48       3      15      12      45      51       2
      15      12     -45      51       3      15      12     -45      51       4
      15      12     -45      51       5      15      18      21      24       9
      15      18      42      27      10      15      18      42      39      10
      12      15      18      21       2      12      15     -18      21       3
      12      15     -18      21       4      12      15     -18      21       5
      12      15      18      42      17      12      15     -18      42      18
      12      15     -18      42      19      12      15     -18      42      20
      12      45      51      54       1       9      12      15      18      21
       9      12     -15      18      22       9      12     -15      18      14
       9      12     -15      18      23       9      12      45      48       3
       9      12      45      51      24       9      12     -45      51      25
       9      12     -45      51      26       9      12     -45      51       5
      69      66      72      75       1      66      72      75      78       2
      66      72     -75      78       3      66      72     -75      78       4
      66      72     -75      78       5      66      72      75      87       2
      66      72     -75      87       3      66      72     -75      87       4
      66      72     -75      87       5      63      57      54      66      27
      63      57     -54      66      28      63      57     -54      66      29
      63      57     -54      66      30      60      57      54      66      27
      60      57     -54      66      28      60      57     -54      66      29
      60      57     -54      66      30      57      54      66      69       3
      57      54      66      72       2      57      54     -66      72       3
      57      54     -66      72       4      57      54     -66      72       5
      54      66      72      75       1      51      54      57      60      31
      51      54     -57      60      32      51      54     -57      60      29
      51      54     -57      60      33      51      54      57      63      31
      51      54     -57      63      32      51      54     -57      63      29
      51      54     -57      63      33      51      54      66      69       3
      51      54      66      72      24      51      54     -66      72      25
      51      54     -66      72      26      51      54     -66      72       5
      90      87      93      96       1      87      93      96      99       2
      87      93     -96      99       3      87      93     -96      99       4
      87      93     -96      99       5      87      93      96     117       2
      87      93     -96     117       3      87      93     -96     117       4
      87      93     -96     117       5      84      78      75      87      34
      84      78     -75      87      35      84      78     -75      87      36
      84      78     -75      87      37      81      78      75      87      27
      81      78     -75      87      28      81      78     -75      87      29
      81      78     -75      87      30      78      75      87      90       3
      78      75      87      93       2      78      75     -87      93       3
      78      75     -87      93       4      78      75     -87      93       5
      75      87      93      96       1      72      75      78      81      31
      72      75     -78      81      32      72      75     -78      81      29
      72      75     -78      81      33      72      75      78      84      38
      72      75     -78      84      39      72      75     -78      84      36
      72      75     -78      84      40      72      75      87      90       3
      72      75      87      93      24      72      75     -87      93      25
      72      75     -87      93      26      72      75     -87      93       5
     120     117     123     126       1     117     123     126     129       2
     117     123    -126     129       3     117     123    -126     129       4
     117     123    -126     129       5     117     123     126     150       2
     117     123    -126     150       3     117     123    -126     150       4
     117     123    -126     150       5     108     105    -102     114      41
     105     102    -114     111      42     105     108    -111     114      43
     102      99      96     117      44     102      99     -96     117      45
     102      99     -96     117      46     102      99     -96     117      47
     102     105    -108     111      48     102     114    -111     108      49
      99      96     117     120       3      99      96     117     123       2
      99      96    -117     123       3      99      96    -117     123       4
      99      96    -117     123       5      99     102     105     108      41
      99     102     114     111      42      96      99     102     105      50
      96      99    -102     105      51      96      99    -102     105      52
      96      99    -102     105      53      96      99     102     114      54
      96      99    -102     114      55      96      99    -102     114      56
      96      99    -102     114      57      96     117     123     126       1
      93      96      99     102      58      93      96     -99     102      59
      93      96     -99     102      46      93      96     -99     102      60
      93      96     117     120       3      93      96     117     123      24
      93      96    -117     123      25      93      96    -117     123      26
      93      96    -117     123       5     153     150     186     162       1
     150     186     162     156      61     150     186    -162     156      62
     150     186     162     165      63     150     186    -162     165      64
     150     186    -162     165      65     150     186     162     168      63
     150     186    -162     168      64     150     186    -162     168      65
     135     138     141     144      49     135     138    -141     144       5
     135     138     141     147      49     135     138    -141     147       5
     132     129     126     150      66     132     135     138     141       2
     132     135    -138     141       4     129     126     150     153       3
     129     126     150     186       2     129     126    -150     186       3
     129     126    -150     186       4     129     126    -150     186       5
     129     132     135     138      66     126     129     132     135      67
     126     129    -132     135      68     126     129    -132     135      69
     126     150     186     162       1     123     126     129     132      66
     123     126     150     153       3     123     126     150     186      24
     123     126    -150     186      25     123     126    -150     186      26
     123     126    -150     186       5     186     162     156     189      70
     186     162    -156     189      71     183     255     252     246      72
     183     255    -252     246      73     183     255    -252     246      74
     180     183     255     252      75     177     180     183     255      76
     174     177     180     183      77     171     168     162     186      78
     171     174     177     180      76     168     162     156     189      79
     168     162    -156     189      80     168     171     174     177      75
     165     162     156     189      79     165     162    -156     189      80
     165     162     168     171      72     165     162    -168     171      73
     165     162    -168     171      74     162     156     189     192       1
     162     168     171     174      72     162     168    -171     174      73
     162     168    -171     174      74     159     156     162     165      81
     159     156     162     168      81     159     156     162     186      25
     159     156     189     192       1     156     162     168     171      78
     156     189     192     195       2     156     189    -192     195       3
     156     189    -192     195       4     156     189    -192     195       5
     156     189     192     198       2     156     189    -192     198       3
     156     189    -192     198       4     156     189    -192     198       5
     201     198     204     207       1     198     204     207     210       2
     198     204    -207     210       3     198     204    -207     210       4
     198     204    -207     210       5     195     192     198     201       3
     195     192     198     204       2     195     192    -198     204       3
     195     192    -198     204       4     195     192    -198     204       5
     192     198     204     207       1     189     192     198     201       3
     189     192     198     204      24     189     192    -198     204      25
     189     192    -198     204      26     189     192    -198     204       5
     213     210     216     219       1     210     216     219     222       2
     210     216    -219     222       3     210     216    -219     222       4
     210     216    -219     222       5     210     216     219     234       2
     210     216    -219     234       3     210     216    -219     234       4
     210     216    -219     234       5     207     210     216     219       1
     204     207     210     213       3     204     207     210     216      24
     204     207    -210     216      25     204     207    -210     216      26
     204     207    -210     216       5     237     234     258     246       1
     234     258     246     240      61     234     258    -246     240      62
     234     258     246     249      63     234     258    -246     249      64
     234     258    -246     249      65     234     258     246     252      63
     234     258    -246     252      64     234     258    -246     252      65
     225     222     219     234      82     225     222    -219     234      83
     225     222    -219     234      84     225     222    -219     234      85
     222     219     234     237       3     222     219     234     258       2
     222     219    -234     258       3     222     219    -234     258       4
     222     219    -234     258       5     219     222     225     228      86
     219     222    -225     228      87     219     222    -225     228      88
     219     222    -225     228      89     219     222     225     231      86
     219     222    -225     231      87     219     222    -225     231      88
     219     222    -225     231      89     219     234     258     246       1
     216     219     222     225      90     216     219    -222     225      91
     216     219    -222     225      84     216     219    -222     225      92
     216     219     234     237       3     216     219     234     258      24
     216     219    -234     258      25     216     219    -234     258      26
     216     219    -234     258       5     258     246     240     261      70
     258     246    -240     261      71     255     252     246     258      78
     252     246     240     261      79     252     246    -240     261      80
     249     246     240     261      79     249     246    -240     261      80
     249     246     252     255      72     249     246    -252     255      73
     249     246    -252     255      74     246     240     261     264       1
     243     240     246     249      81     243     240     246     252      81
     243     240     246     258      25     243     240     261     264       1
     240     246     252     255      78     240     261     264     267       2
     240     261    -264     267       3     240     261    -264     267       4
     240     261    -264     267       5     240     261     264     273       2
     240     261    -264     273       3     240     261    -264     273       4
     240     261    -264     273       5     276     273     279     282       1
     273     279     282     285       2     273     279    -282     285       3
     273     279    -282     285       4     273     279    -282     285       5
     273     279     282     306       2     273     279    -282     306       3
     273     279    -282     306       4     273     279    -282     306       5
     270     267     264     273      93     270     267    -264     273      94
     270     267    -264     273      95     270     267    -264     273      96
     267     264     273     276       3     267     264     273     279       2
     267     264    -273     279       3     267     264    -273     279       4
     267     264    -273     279       5     264     273     279     282       1
     261     264     267     270      97     261     264    -267     270      98
     261     264    -267     270      95     261     264    -267     270      99
     261     264     273     276       3     261     264     273     279      24
     261     264    -273     279      25     261     264    -273     279      26
     261     264    -273     279       5     309     306     312     315       1
     306     312     315     318       2     306     312    -315     318       3
     306     312    -315     318       4     306     312    -315     318       5
     306     312     315     324       2     306     312    -315     324       3
     306     312    -315     324       4     306     312    -315     324       5
     291     294     297     300      49     291     294    -297     300       5
     291     294     297     303      49     291     294    -297     303       5
     288     285     282     306      66     288     291     294     297       2
     288     291    -294     297       4     285     282     306     309       3
     285     282     306     312       2     285     282    -306     312       3
     285     282    -306     312       4     285     282    -306     312       5
     285     288     291     294      66     282     285     288     291      67
     282     285    -288     291      68     282     285    -288     291      69
     282     306     312     315       1     279     282     285     288      66
     279     282     306     309       3     279     282     306     312      24
     279     282    -306     312      25     279     282    -306     312      26
     279     282    -306     312       5     327     324     330     333       1
     324     330     333     336       2     324     330    -333     336       3
     324     330    -333     336       4     324     330    -333     336       5
     321     318     315     324      93     321     318    -315     324      94
     321     318    -315     324      95     321     318    -315     324      96
     318     315     324     327       3     318     315     324     330       2
     318     315    -324     330       3     318     315    -324     330       4
     318     315    -324     330       5     315     324     330     333       1
     312     315     318     321      97     312     315    -318     321      98
     312     315    -318     321      95     312     315    -318     321      99
     312     315     324     327       3     312     315     324     330      24
     312     315    -324     330      25     312     315    -324     330      26
     312     315    -324     330       5     339     336     342     345       1
     336     342     345     348       2     336     342    -345     348       3
     336     342    -345     348       4     336     342    -345     348       5
     333     336     342     345       1     330     333     336     339       3
     330     333     336     342      24     330     333    -336     342      25
     330     333    -336     342      26     330     333    -336     342       5
     351     348     354     357       1     348     354     357     360       2
     348     354    -357     360       3     348     354    -357     360       4
     348     354    -357     360       5     348     354     357     369       2
     348     354    -357     369       3     348     354    -357     369       4
     348     354    -357     369       5     345     348     354     357       1
     342     345     348     351       3     342     345     348     354      24
     342     345    -348     354      25     342     345    -348     354      26
     342     345    -348     354       5     372     369     375     378       1
     369     375     378     381       2     369     375    -378     381       3
     369     375    -378     381       4     369     375    -378     381       5
     369     375     378     390       2     369     375    -378     390       3
     369     375    -378     390       4     369     375    -378     390       5
     366     360     357     369      27     366     360    -357     369      28
     366     360    -357     369      29     366     360    -357     369      30
     363     360     357     369      27     363     360    -357     369      28
     363     360    -357     369      29     363     360    -357     369      30
     360     357     369     372       3     360     357     369     375       2
     360     357    -369     375       3     360     357    -369     375       4
     360     357    -369     375       5     357     369     375     378       1
     354     357     360     363      31     354     357    -360     363      32
     354     357    -360     363      29     354     357    -360     363      33
     354     357     360     366      31     354     357    -360     366      32
     354     357    -360     366      29     354     357    -360     366      33
     354     357     369     372       3     354     357     369     375      24
     354     357    -369     375      25     354     357    -369     375      26
     354     357    -369     375       5     393     390     396     399       1
     390     396     399     402       2     390     396    -399     402       3
     390     396    -399     402       4     390     396    -399     402       5
     390     396     399     417       2     390     396    -399     417       3
     390     396    -399     417       4     390     396    -399     417       5
     387     381     378     390      27     387     381    -378     390      28
     387     381    -378     390      29     387     381    -378     390      30
     384     381     378     390      27     384     381    -378     390      28
     384     381    -378     390      29     384     381    -378     390      30
     381     378     390     393       3     381     378     390     396       2
     381     378    -390     396       3     381     378    -390     396       4
     381     378    -390     396       5     378     390     396     399       1
     375     378     381     384      31     375     378    -381     384      32
     375     378    -381     384      29     375     378    -381     384      33
     375     378     381     387      31     375     378    -381     387      32
     375     378    -381     387      29     375     378    -381     387      33
     375     378     390     393       3     375     378     390     396      24
     375     378    -390     396      25     375     378    -390     396      26
     375     378    -390     396       5     420     417     423     426       1
     417     423     426     429       2     417     423    -426     429       3
     417     423    -426     429       4     417     423    -426     429       5
     417     423     426     441       2     417     423    -426     441       3
     417     423    -426     441       4     417     423    -426     441       5
     405     402     399     417      66     405     408     411     414      66
     402     399     417     420       3     402     399     417     423       2
     402     399    -417     423       3     402     399    -417     423       4
     402     399    -417     423       5     402     405     408     411      67
     402     405    -408     411      68     402     405    -408     411      69
     399     402     405     408      67     399     402    -405     408      68
     399     402    -405     408      69     399     417     423     426       1
     396     399     402     405      66     396     399     417     420       3
     396     399     417     423      24     396     399    -417     423      25
     396     399    -417     423      26     396     399    -417     423       5
     444     441     447     450       1     441     447     450     453       2
     441     447    -450     453       3     441     447    -450     453       4
     441     447    -450     453       5     441     447     450     465       2
     441     447    -450     465       3     441     447    -450     465       4
     441     447    -450     465       5     432     429     426     441     100
     432     429    -426     441     101     432     429    -426     441     102
     432     429    -426     441     103     429     426     441     444       3
     429     426     441     447       2     429     426    -441     447       3
     429     426    -441     447       4     429     426    -441     447       5
     426     429     432     435       2     426     429     432     438     104
     426     429    -432     438     105     426     429    -432     438     106
     426     429    -432     438     107     426     441     447     450       1
     423     426     429     432     108     423     426    -429     432     109
     423     426    -429     432     102     423     426    -429     432     110
     423     426     441     444       3     423     426     441     447      24
     423     426    -441     447      25     423     426    -441     447      26
     423     426    -441     447       5     468     465     471     474       1
     465     471     474     477       2     465     471    -474     477       3
     465     471    -474     477       4     465     471    -474     477       5
     465     471     474     498       2     465     471    -474     498       3
     465     471    -474     498       4     465     471    -474     498       5
     456     453     450     465     100     456     453    -450     465     101
     456     453    -450     465     102     456     453    -450     465     103
     453     450     465     468       3     453     450     465     471       2
     453     450    -465     471       3     453     450    -465     471       4
     453     450    -465     471       5     450     453     456     459       2
     450     453     456     462     104     450     453    -456     462     105
     450     453    -456     462     106     450     453    -456     462     107
     450     465     471     474       1     447     450     453     456     108
     447     450    -453     456     109     447     450    -453     456     102
     447     450    -453     456     110     447     450     465     468       3
     447     450     465     471      24     447     450    -465     471      25
     447     450    -465     471      26     447     450    -465     471       5
     501     498     504     507       1     498     504     507     510       2
     498     504    -507     510       3     498     504    -507     510       4
     498     504    -507     510       5     498     504     507     519       2
     498     504    -507     519       3     498     504    -507     519       4
     498     504    -507     519       5     486     483     480     495       6
     486     489    -492     495       6     483     480     495     492       6
     483     486    -489     492       6     480     477     474     498     111
     480     477    -474     498     112     480     477    -474     498     113
     480     477    -474     498     114     480     483     486     489       6
     480     495    -492     489       6     477     474     498     501       3
     477     474     498     504       2     477     474    -498     504       3
     477     474    -498     504       4     477     474    -498     504       5
     477     480     483     486       6     477     480     495     492       6
     474     477     480     483       2     474     477    -480     483     115
     474     477    -480     483       4     474     477    -480     483     116
     474     477     480     495       2     474     477    -480     495     115
     474     477    -480     495       4     474     477    -480     495     116
     474     498     504     507       1     471     474     477     480     117
     471     474    -477     480      73     471     474    -477     480     113
     471     474    -477     480     118     471     474     498     501       3
     471     474     498     504      24     471     474    -498     504      25
     471     474    -498     504      26     471     474    -498     504       5
     522     519     525     528       1     522     519     525     537       1
     519     525     528     531     119     519     525    -528     531     120
     519     525    -528     531     121     519     525    -528     531       5
     519     525     537     534       2     519     525    -537     534       3
     519     525    -537     534       4     519     525    -537     534       5
     519     525     537     540       2     519     525    -537     540       3
     519     525    -537     540       4     519     525    -537     540       5
     516     510     507     519      27     516     510    -507     519      28
     516     510    -507     519      29     516     510    -507     519      30
     513     510     507     519      27     513     510    -507     519      28
     513     510    -507     519      29     513     510    -507     519      30
     510     507     519     522       3     510     507     519     525       2
     510     507    -519     525       3     510     507    -519     525       4
     510     507    -519     525       5     507     519     525     528       1
     507     519     525     537       1     504     507     510     513      31
     504     507    -510     513      32     504     507    -510     513      29
     504     507    -510     513      33     504     507     510     516      31
     504     507    -510     516      32     504     507    -510     516      29
     504     507    -510     516      33     504     507     519     522       3
     504     507     519     525      24     504     507    -519     525      25
     504     507    -519     525      26     504     507    -519     525       5
     543     540     546     549       1     540     546     549     552       2
     540     546    -549     552       3     540     546    -549     552       4
     540     546    -549     552       5     540     546     549     561       2
     540     546    -549     561       3     540     546    -549     561       4
     540     546    -549     561       5     537     540     546     549       1
     534     537     540     543       3     534     537     540     546       2
     534     537    -540     546       3     534     537    -540     546       4
     534     537    -540     546       5     531     528    -525     537       3
     531     534     537     540      66     528     525    -537     534       3
     528     525     537     540       3     528     531    -534     537      67
     528     531    -534     537      68     528     531    -534     537      69
     525     528    -531     534      66     525     537    -534     531      66
     525     537     540     543       3     525     537     540     546      24
     525     537    -540     546      25     525     537    -540     546      26
     525     537    -540     546       5     564     561     567     570       1
     561     567     570     573       2     561     567    -570     573       3
     561     567    -570     573       4     561     567    -570     573       5
     561     567     570     585       2     561     567    -570     585       3
     561     567    -570     585       4     561     567    -570     585       5
     558     552     549     561      34     558     552    -549     561      35
     558     552    -549     561      36     558     552    -549     561      37
     555     552     549     561      27     555     552    -549     561      28
     555     552    -549     561      29     555     552    -549     561      30
     552     549     561     564       3     552     549     561     567       2
     552     549    -561     567       3     552     549    -561     567       4
     552     549    -561     567       5     549     561     567     570       1
     546     549     552     555      31     546     549    -552     555      32
     546     549    -552     555      29     546     549    -552     555      33
     546     549     552     558      38     546     549    -552     558      39
     546     549    -552     558      36     546     549    -552     558      40
     546     549     561     564       3     546     549     561     567      24
     546     549    -561     567      25     546     549    -561     567      26
     546     549    -561     567       5     588     585     591     594       1
     585     591     594     597       2     585     591    -594     597       3
     585     591    -594     597       4     585     591    -594     597       5
     585     591     594     606       2     585     591    -594     606       3
     585     591    -594     606       4     585     591    -594     606       5
     576     573     570     585     122     576     573    -570     585     123
     576     573    -570     585     124     576     573    -570     585     125
     573     570     585     588       3     573     570     585     591       2
     573     570    -585     591       3     573     570    -585     591       4
     573     570    -585     591       5     570     573     576     579       2
     570     573    -576     579     126     570     573    -576     579       4
     570     573    -576     579     127     570     573     576     582       2
     570     573    -576     582     126     570     573    -576     582       4
     570     573    -576     582     127     570     585     591     594       1
     567     570     573     576     128     567     570    -573     576     129
     567     570    -573     576     124     567     570    -573     576      60
     567     570     585     588       3     567     570     585     591      24
     567     570    -585     591      25     567     570    -585     591      26
     567     570    -585     591       5     609     606     612     615       1
     606     612     615     618       2     606     612    -615     618       3
     606     612    -615     618       4     606     612    -615     618       5
     603     597     594     606      27     603     597    -594     606      28
     603     597    -594     606      29     603     597    -594     606      30
     600     597     594     606      27     600     597    -594     606      28
     600     597    -594     606      29     600     597    -594     606      30
     597     594     606     609       3     597     594     606     612       2
     597     594    -606     612       3     597     594    -606     612       4
     597     594    -606     612       5     594     606     612     615       1
     591     594     597     600      31     591     594    -597     600      32
     591     594    -597     600      29     591     594    -597     600      33
     591     594     597     603      31     591     594    -597     603      32
     591     594    -597     603      29     591     594    -597     603      33
     591     594     606     609       3     591     594     606     612      24
     591     594    -606     612      25     591     594    -606     612      26
     591     594    -606     612       5     621     618     624     627       1
     621     618     624     636       1     618     624     627     630     119
     618     624    -627     630     120     618     624    -627     630     121
     618     624    -627     630       5     618     624     636     633       2
     618     624    -636     633       3     618     624    -636     633       4
     618     624    -636     633       5     618     624     636     639       2
     618     624    -636     639       3     618     624    -636     639       4
     618     624    -636     639       5     615     618     624     627       1
     615     618     624     636       1     612     615     618     621       3
     612     615     618     624      24     612     615    -618     624      25
     612     615    -618     624      26     612     615    -618     624       5
     642     639     645     648       1     639     645     648     651       2
     639     645    -648     651       3     639     645    -648     651       4
     639     645    -648     651       5     639     645     648     672       2
     639     645    -648     672       3     639     645    -648     672       4
     639     645    -648     672       5     636     639     645     648       1
     633     636     639     642       3     633     636     639     645       2
     633     636    -639     645       3     633     636    -639     645       4
     633     636    -639     645       5     630     627    -624     636       3
     630     633     636     639      66     627     624    -636     633       3
     627     624     636     639       3     627     630    -633     636      67
     627     630    -633     636      68     627     630    -633     636      69
     624     627    -630     633      66     624     636    -633     630      66
     624     636     639     642       3     624     636     639     645      24
     624     636    -639     645      25     624     636    -639     645      26
     624     636    -639     645       5     675     672     678     681       1
     672     678     681     684       2     672     678    -681     684       3
     672     678    -681     684       4     672     678    -681     684       5
     672     678     681     687       2     672     678    -681     687       3
     672     678    -681     687       4     672     678    -681     687       5
     660     657     654     669       6     660     663    -666     669       6
     657     654     669     666       6     657     660    -663     666       6
     654     651     648     672     111     654     651    -648     672     112
     654     651    -648     672     113     654     651    -648     672     114
     654     657     660     663       6     654     669    -666     663       6
     651     648     672     675       3     651     648     672     678       2
     651     648    -672     678       3     651     648    -672     678       4
     651     648    -672     678       5     651     654     657     660       6
     651     654     669     666       6     648     651     654     657       2
     648     651    -654     657     115     648     651    -654     657       4
     648     651    -654     657     116     648     651     654     669       2
     648     651    -654     669     115     648     651    -654     669       4
     648     651    -654     669     116     648     672     678     681       1
     645     648     651     654     117     645     648    -651     654      73
     645     648    -651     654     113     645     648    -651     654     118
     645     648     672     675       3     645     648     672     678      24
     645     648    -672     678      25     645     648    -672     678      26
     645     648    -672     678       5     690     687     693     696       1
     687     693     696     699       2     687     693    -696     699       3
     687     693    -696     699       4     687     693    -696     699       5
     687     693     696     720       2     687     693    -696     720       3
     687     693    -696     720       4     687     693    -696     720       5
     684     681     687     690       3     684     681     687     693       2
     684     681    -687     693       3     684     681    -687     693       4
     684     681    -687     693       5     681     687     693     696       1
     678     681     687     690       3     678     681     687     693      24
     678     681    -687     693      25     678     681    -687     693      26
     678     681    -687     693       5     708     705     702     717       6
     708     711    -714     717       6     705     702     717     714       6
     705     708    -711     714       6     702     699     696     720     111
     702     699    -696     720     112     702     699    -696     720     113
     702     699    -696     720     114     702     705     708     711       6
     702     717    -714     711       6     699     696     720     723       3
     699     696     720     726       2     699     696    -720     726       3
     699     696    -720     726       4     699     696    -720     726       5
     699     702     705     708       6     699     702     717     714       6
     696     699     702     705       2     696     699    -702     705     115
     696     699    -702     705       4     696     699    -702     705     116
     696     699     702     717       2     696     699    -702     717     115
     696     699    -702     717       4     696     699    -702     717     116
     693     696     699     702     117     693     696    -699     702      73
     693     696    -699     702     113     693     696    -699     702     118
     693     696     720     723       3     693     696     720     726      24
     693     696    -720     726      25     693     696    -720     726      26
     693     696    -720     726       5       0       9      -3      -6     130
      12      51     -45     -48     130      18      27     -42     -39     131
      24      30     -27     -42     131      42      15     -18     -21     132
      54      72     -66     -69     130      75      93     -87     -90     130
      96     123    -117    -120     130      99     114    -102    -105     132
     126     186    -150    -153     130     138     144    -141    -147     130
     162     189    -156    -159     132     192     204    -198    -201     130
     207     216    -210    -213     130     219     258    -234    -237     130
     246     261    -240    -243     132     264     279    -273    -276     130
     282     312    -306    -309     130     294     300    -297    -303     130
     315     330    -324    -327     130     333     342    -336    -339     130
     345     354    -348    -351     130     357     375    -369    -372     130
     378     396    -390    -393     130     399     423    -417    -420     130
     426     447    -441    -444     130     429     438    -432    -435     130
     450     471    -465    -468     130     453     462    -456    -459     130
     474     504    -498    -501     130     483     495    -480    -477     132
     507     525    -519    -522     130     537     546    -540    -543     130
     519     528    -525    -537     133     549     567    -561    -564     130
     570     591    -585    -588     130     573     579    -576    -582     130
     594     612    -606    -609     130     615     624    -618    -621     130
     636     645    -639    -642     130     618     627    -624    -636     133
     648     678    -672    -675     130     657     669    -654    -651     132
     681     693    -687    -690     130     696     726    -720    -723     130
     705     717    -702    -699     132
%FLAG EXCLUDED_ATOMS_LIST                                                       
%FORMAT(10I8)                                                                   
       2       3       4       5       3       4       5       6      16       4
       5       5       6       7      16      17      18       6       7       8
      15      16      17      18      19       7       8       9      10      14
      15      16      17      18       8       9      10      11      13      14
      15      16       9      10      11      14      15      10      11      12
      14      15      11      12      13      14      15      12      13      14
      15      13      14      15      14      15      15       0      17      18
      19      20      23      18      19      19      20      21      22      23
      24      25      20      21      22      23      24      25      26      21
      22      23      24      25      22      23      23      24      25      26
      27      30      25      26      26      27      28      29      30      31
      32      27      28      29      30      31      32      33      28      29
      30      31      32      29      30      30      31      32      33      34
      40      32      33      33      34      35      40      41      42      34
      35      36      39      40      41      42      43      35      36      37
      38      39      40      41      42      36      37      38      39      40
      37      38      39      38      39      39       0      41      42      43
      44      51      42      43      43      44      45      51      52      63
      44      45      46      51      52      55      63      45      46      47
      51      52      63      46      47      48      51      47      48      49
      50      48      49      50      49      50      50       0      52      53
      55      56      57      63      55      63      54      55      56      57
      58      63      64      65      66      67      55      56      57      63
      64      65      56      57      58      59      63      64      65      57
      58      63      64      58      59      60      63      64      59      60
      61      63      60      61      62      61      62      86      62      85
      86      83      85      86      64      65      66      67      68      69
      66      67      68      69      70      67      68      69      68      69
      70      71      69      70      70      71      72      73      71      72
      73      74      72      73      74      75      79      73      74      74
      75      76      79      80      87      75      76      77      78      79
      80      83      87      76      77      78      79      80      87      77
      78      79      78       0      80      81      83      84      85      87
      83      87      82      83      84      85      86      87      88      89
      90      92      83      84      85      87      88      89      84      85
      86      87      88      89      85      86      87      88      86      87
      88      87      88      89      90      91      92      93      94      90
      91      92      93      94      95      91      92      93      94      92
      93      94      95      96     103      94      95      95      96      97
     103     104     105      96      97      98     103     104     105     106
      97      98      99     103     104     105      98      99     100     103
      99     100     101     102     100     101     102     101     102     102
       0     104     105     106     107     109     105     106     106     107
     108     109     110     111     107     108     109     110     111     112
     108     109     110     111     109     110     111     112     113     111
     112     112     113     114     115     113     114     115     116     114
     115     116     117     115     116     116     117     118     119     117
     118     119     120     118     119     120     121     124     119     120
     120     121     122     123     124     125     126     121     122     123
     124     125     126     127     122     123     124     125     126     123
     124     124     125     126     127     128     131     126     127     127
     128     129     130     131     132     133     128     129     130     131
     132     133     134     129     130     131     132     133     130     131
     131     132     133     134     135     140     133     134     134     135
     136     140     141     142     135     136     137     140     141     142
     143     136     137     138     140     141     142     137     138     139
     140     138     139     139       0     141     142     143     144     148
     142     143     143     144     145     148     149     150     144     145
     146     147     148     149     150     151     145     146     147     148
     149     150     146     147     148     147       0     149     150     151
     152     156     150     151     151     152     153     156     157     158
     152     153     154     155     156     157     158     159     153     154
     155     156     157     158     154     155     156     155       0     157
     158     159     160     167     158     159     159     160     161     167
     168     169     160     161     162     166     167     168     169     170
     161     162     163     165     166     167     168     169     162     163
     164     165     166     167     163     164     165     166     164     165
     166     165     166     166       0     168     169     170     171     174
     169     170     170     171     172     173     174     175     176     171
     172     173     174     175     176     177     180     172     173     174
     175     176     173     174     174     175     176     177     178     179
     180     181     176     177     180     177     178     179     180     181
     182     183     178     179     180     181     179     180     181     180
     181     182     183     181     182     183     184     182     183     184
     185     188     183     184     184     185     186     187     188     189
     190     185     186     187     188     189     190     191     186     187
     188     189     190     187     188     188     189     190     191     192
     196     190     191     191     192     193     196     197     198     192
     193     194     195     196     197     198     199     193     194     195
     196     197     198     194     195     196     195       0     197     198
     199     200     203     198     199     199     200     201     202     203
     204     205     200     201     202     203     204     205     206     201
     202     203     204     205     202     203     203     204     205     206
     207     205     206     206     207     208     209     207     208     209
     210     213     208     209     210     211     212     213     214     209
     210     213     210     211     212     213     214     215     216     211
     212     213     214     212     213     214     213     214     215     216
     214     215     216     217     215     216     217     218     225     216
     217     217     218     219     225     226     227     218     219     220
     224     225     226     227     228     219     220     221     223     224
     225     226     227     220     221     222     223     224     225     221
     222     223     224     222     223     224     223     224     224       0
     226     227     228     229     230     227     228     228     229     230
     231     232     229     230     231     232     233     230     231     232
     231     232     233     234     241     232     233     233     234     235
     241     242     243     234     235     236     240     241     242     243
     235     236     237     239     240     241     242     243     236     237
     238     239     240     241     237     238     239     240     238     239
     240     239     240     240       0     242     243     243       0
%FLAG HBOND_ACOEF                                                               
%FORMAT(5E16.8)                                                                 

%FLAG HBOND_BCOEF                                                               
%FORMAT(5E16.8)                                                                 

%FLAG HBCUT                                                                     
%FORMAT(5E16.8)                                                                 

%FLAG AMBER_ATOM_TYPE                                                           
%FORMAT(20a4)                                                                   
CT  C   O   N   XC  CT  C*  CW  NA  CN  CA  CA  CA  CA  CB  C   O   N   XC  3C  
CT  CT  C   O   N   XC  3C  CT  OH  C   O   N   XC  CT  CC  NA  CR  NB  CV  C   
O   N   XC  C8  C8  C8  N2  CA  N2  N2  C   O   C   O   CX  CU  CU  CU  CU  CM  
CM  CU  N   N   XC  CT  C   O   N   XC  C   O   N   XC  2C  3C  CT  CT  C   O   
C   O   CX  CU  CU  CU  N   N   XC  2C  OH  C   O   N   XC  C8  C8  C8  N2  CA  
N2  N2  C   O   N   XC  2C  OH  C   O   N   XC  C   O   N   XC  C   O   N   XC  
3C  CT  CT  C   O   N   XC  3C  CT  CT  C   O   N   XC  C8  C8  C8  C8  N3  C   
O   N   XC  2C  C   O   N   C   O   N   XC  2C  C   O   N   C   O   N   XC  CT  
CA  CA  CA  CA  CA  CA  C   O   N   XC  3C  CT  CT  C   O   N   CT  CT  CT  XC  
C   O   N   XC  3C  CT  OH  C   O   N   XC  2C  CO  O2  O2  C   O   N   XC  3C  
CT  CT  C   O   N   XC  C   O   N   CT  CT  CT  XC  C   O   N   XC  CT  CA  CA  
CA  CA  CA  CA  C   O   N   XC  CT  C   O   N   XC  CT  CA  CA  CA  CA  CA  CA  
C   O   N   
%FLAG TREE_CHAIN_CLASSIFICATION                                                 
%FORMAT(20a4)                                                                   
M   M   E   M   M   3   B   B   B   S   B   B   B   S   E   M   E   M   M   3   
3   3   M   E   M   M   3   3   S   M   E   M   M   3   B   S   S   S   B   M   
E   M   M   3   3   3   B   B   B   B   M   E   M   E   M   3   3   3   3   B   
B   B   M   M   M   3   M   E   M   M   M   E   M   M   3   3   3   3   M   E   
M   E   M   3   3   B   M   M   M   3   S   M   E   M   M   3   3   3   B   B   
B   B   M   E   M   M   3   S   M   E   M   M   M   E   M   M   M   E   M   M   
3   3   3   M   E   M   M   3   3   3   M   E   M   M   3   3   3   3   3   M   
E   M   M   3   B   E   B   M   E   M   M   3   B   E   B   M   E   M   M   3   
B   B   B   B   S   S   M   E   M   M   3   3   3   M   E   M   3   3   B   M   
M   E   M   M   3   3   S   M   E   M   M   3   B   E   E   M   E   M   M   3   
3   3   M   E   M   M   M   E   M   3   3   B   M   M   E   M   M   3   B   B   
B   B   S   S   M   E   M   M   3   M   E   M   M   3   B   B   B   B   S   S   
M   E   M   
%FLAG JOIN_ARRAY                                                                
%FORMAT(10I8)                                                                   
       0       0       0       0       0       0       0       0       0       0
       0       0       0       0       0       0       0       0       0       0
       0       0       0       0       0       0       0       0       0       0
       0       0       0       0       0       0       0       0       0       0
       0       0       0       0       0       0       0       0       0       0
       0       0       0       0       0       0       0       0       0       0
       0       0       0       0       0       0       0       0       0       0
       0       0       0       0       0       0       0       0       0       0
       0       0       0       0       0       0       0       0       0       0
       0       0       0       0       0       0       0       0       0       0
       0       0       0       0       0       0       0       0       0       0
       0       0       0       0       0       0       0       0       0       0
       0       0       0       0       0       0       0       0       0       0
       0       0       0       0       0       0       0       0       0       0
       0       0       0       0       0       0       0       0       0       0
       0       0       0       0       0       0       0       0       0       0
       0       0       0       0       0       0       0       0       0       0
       0       0       0       0       0       0       0       0       0       0
       0       0       0       0       0       0       0       0       0       0
       0       0       0       0       0       0       0       0       0       0
       0       0       0       0       0       0       0       0       0       0
       0       0       0       0       0       0       0       0       0       0
       0       0       0       0       0       0       0       0       0       0
       0       0       0       0       0       0       0       0       0       0
       0       0       0
%FLAG IROTAT                                                                    
%FORMAT(10I8)                                                                   
       0       0       0       0       0       0       0       0       0       0
       0       0       0       0       0       0       0       0       0       0
       0       0       0       0       0       0       0       0       0       0
       0       0       0       0       0       0       0       0       0       0
       0       0       0       0       0       0       0       0       0       0
       0       0       0       0       0       0       0       0       0       0
       0       0       0       0       0       0       0       0       0       0
       0       0       0       0       0       0       0       0       0       0
       0       0       0       0       0       0       0       0       0       0
       0       0       0       0       0       0       0       0       0       0
       0       0       0       0       0       0       0       0       0       0
       0       0       0       0       0       0       0       0       0       0
       0       0       0       0       0       0       0       0       0       0
       0       0       0       0       0       0       0       0       0       0
       0       0       0       0       0       0       0       0       0       0
       0       0       0       0       0       0       0       0       0       0
       0       0       0       0       0       0       0       0       0       0
       0       0       0       0       0       0       0       0       0       0
       0       0       0       0       0       0       0       0       0       0
       0       0       0       0       0       0       0       0       0       0
       0       0       0       0       0       0       0       0       0       0
       0       0       0       0       0       0       0       0       0       0
       0       0       0       0       0       0       0       0       0       0
       0       0       0       0       0       0       0       0       0       0
       0       0       0
%FLAG SOLVENT_POINTERS                                                          
%FORMAT(3I8)                                                                    
      33       1       2
%FLAG ATOMS_PER_MOLECULE                                                        
%FORMAT(10I8)                                                                   
     243
%FLAG BOX_DIMENSIONS                                                            
%FORMAT(5E16.8)                                                                 
  9.00000000E+01  6.76688665E+01  7.22656585E+01  9.05452985E+01
%FLAG RADIUS_SET                                                                
%FORMAT(1a80)                                                                   
modified Bondi radii (mbondi)                                                   
%FLAG RADII                                                                     
%FORMAT(5E16.8)                                                                 
  1.70000000E+00  1.70000000E+00  1.50000000E+00  1.55000000E+00  1.70000000E+00
  1.70000000E+00  1.70000000E+00  1.70000000E+00  1.55000000E+00  1.70000000E+00
  1.70000000E+00  1.70000000E+00  1.70000000E+00  1.70000000E+00  1.70000000E+00
  1.70000000E+00  1.50000000E+00  1.55000000E+00  1.70000000E+00  1.70000000E+00
  1.70000000E+00  1.70000000E+00  1.70000000E+00  1.50000000E+00  1.55000000E+00
  1.70000000E+00  1.70000000E+00  1.70000000E+00  1.50000000E+00  1.70000000E+00
  1.50000000E+00  1.55000000E+00  1.70000000E+00  1.70000000E+00  1.70000000E+00
  1.55000000E+00  1.70000000E+00  1.55000000E+00  1.70000000E+00  1.70000000E+00
  1.50000000E+00  1.55000000E+00  1.70000000E+00  1.70000000E+00  1.70000000E+00
  1.70000000E+00  1.55000000E+00  1.70000000E+00  1.55000000E+00  1.55000000E+00
  1.70000000E+00  1.50000000E+00  1.70000000E+00  1.50000000E+00  1.70000000E+00
  1.50000000E+00  1.50000000E+00  1.50000000E+00  1.50000000E+00  1.70000000E+00
  1.70000000E+00  1.50000000E+00  1.55000000E+00  1.55000000E+00  1.70000000E+00
  1.70000000E+00  1.70000000E+00  1.50000000E+00  1.55000000E+00  1.70000000E+00
  1.70000000E+00  1.50000000E+00  1.55000000E+00  1.70000000E+00  1.70000000E+00
  1.70000000E+00  1.70000000E+00  1.70000000E+00  1.70000000E+00  1.50000000E+00
  1.70000000E+00  1.50000000E+00  1.70000000E+00  1.50000000E+00  1.50000000E+00
  1.50000000E+00  1.55000000E+00  1.55000000E+00  1.70000000E+00  1.70000000E+00
  1.50000000E+00  1.70000000E+00  1.50000000E+00  1.55000000E+00  1.70000000E+00
  1.70000000E+00  1.70000000E+00  1.70000000E+00  1.55000000E+00  1.70000000E+00
  1.55000000E+00  1.55000000E+00  1.70000000E+00  1.50000000E+00  1.55000000E+00
  1.70000000E+00  1.70000000E+00  1.50000000E+00  1.70000000E+00  1.50000000E+00
  1.55000000E+00  1.70000000E+00  1.70000000E+00  1.50000000E+00  1.55000000E+00
  1.70000000E+00  1.70000000E+00  1.50000000E+00  1.55000000E+00  1.70000000E+00
  1.70000000E+00  1.70000000E+00  1.70000000E+00  1.70000000E+00  1.50000000E+00
  1.55000000E+00  1.70000000E+00  1.70000000E+00  1.70000000E+00  1.70000000E+00
  1.70000000E+00  1.50000000E+00  1.55000000E+00  1.70000000E+00  1.70000000E+00
  1.70000000E+00  1.70000000E+00  1.70000000E+00  1.55000000E+00  1.70000000E+00
  1.50000000E+00  1.55000000E+00  1.70000000E+00  1.70000000E+00  1.70000000E+00
  1.50000000E+00  1.55000000E+00  1.70000000E+00  1.50000000E+00  1.55000000E+00
  1.70000000E+00  1.70000000E+00  1.70000000E+00  1.50000000E+00  1.55000000E+00
  1.70000000E+00  1.50000000E+00  1.55000000E+00  1.70000000E+00  1.70000000E+00
  1.70000000E+00  1.70000000E+00  1.70000000E+00  1.70000000E+00  1.70000000E+00
  1.70000000E+00  1.70000000E+00  1.50000000E+00  1.55000000E+00  1.70000000E+00
  1.70000000E+00  1.70000000E+00  1.70000000E+00  1.70000000E+00  1.50000000E+00
  1.55000000E+00  1.70000000E+00  1.70000000E+00  1.70000000E+00  1.70000000E+00
  1.70000000E+00  1.50000000E+00  1.55000000E+00  1.70000000E+00  1.70000000E+00
  1.70000000E+00  1.50000000E+00  1.70000000E+00  1.50000000E+00  1.55000000E+00
  1.70000000E+00  1.70000000E+00  1.70000000E+00  1.50000000E+00  1.50000000E+00
  1.70000000E+00  1.50000000E+00  1.55000000E+00  1.70000000E+00  1.70000000E+00
  1.70000000E+00  1.70000000E+00  1.70000000E+00  1.50000000E+00  1.55000000E+00
  1.70000000E+00  1.70000000E+00  1.50000000E+00  1.55000000E+00  1.70000000E+00
  1.70000000E+00  1.70000000E+00  1.70000000E+00  1.70000000E+00  1.50000000E+00
  1.55000000E+00  1.70000000E+00  1.70000000E+00  1.70000000E+00  1.70000000E+00
  1.70000000E+00  1.70000000E+00  1.70000000E+00  1.70000000E+00  1.70000000E+00
  1.50000000E+00  1.55000000E+00  1.70000000E+00  1.70000000E+00  1.70000000E+00
  1.50000000E+00  1.55000000E+00  1.70000000E+00  1.70000000E+00  1.70000000E+00
  1.70000000E+00  1.70000000E+00  1.70000000E+00  1.70000000E+00  1.70000000E+00
  1.70000000E+00  1.50000000E+00  1.55000000E+00
%FLAG SCREEN                                                                    
%FORMAT(5E16.8)                                                                 
  7.20000000E-01  7.20000000E-01  8.50000000E-01  7.90000000E-01  7.20000000E-01
  7.20000000E-01  7.20000000E-01  7.20000000E-01  7.90000000E-01  7.20000000E-01
  7.20000000E-01  7.20000000E-01  7.20000000E-01  7.20000000E-01  7.20000000E-01
  7.20000000E-01  8.50000000E-01  7.90000000E-01  7.20000000E-01  7.20000000E-01
  7.20000000E-01  7.20000000E-01  7.20000000E-01  8.50000000E-01  7.90000000E-01
  7.20000000E-01  7.20000000E-01  7.20000000E-01  8.50000000E-01  7.20000000E-01
  8.50000000E-01  7.90000000E-01  7.20000000E-01  7.20000000E-01  7.20000000E-01
  7.90000000E-01  7.20000000E-01  7.90000000E-01  7.20000000E-01  7.20000000E-01
  8.50000000E-01  7.90000000E-01  7.20000000E-01  7.20000000E-01  7.20000000E-01
  7.20000000E-01  7.90000000E-01  7.20000000E-01  7.90000000E-01  7.90000000E-01
  7.20000000E-01  8.50000000E-01  7.20000000E-01  8.50000000E-01  7.20000000E-01
  8.00000000E-01  8.00000000E-01  8.00000000E-01  8.00000000E-01  7.20000000E-01
  7.20000000E-01  8.00000000E-01  7.90000000E-01  7.90000000E-01  7.20000000E-01
  7.20000000E-01  7.20000000E-01  8.50000000E-01  7.90000000E-01  7.20000000E-01
  7.20000000E-01  8.50000000E-01  7.90000000E-01  7.20000000E-01  7.20000000E-01
  7.20000000E-01  7.20000000E-01  7.20000000E-01  7.20000000E-01  8.50000000E-01
  7.20000000E-01  8.50000000E-01  7.20000000E-01  8.00000000E-01  8.00000000E-01
  8.00000000E-01  7.90000000E-01  7.90000000E-01  7.20000000E-01  7.20000000E-01
  8.50000000E-01  7.20000000E-01  8.50000000E-01  7.90000000E-01  7.20000000E-01
  7.20000000E-01  7.20000000E-01  7.20000000E-01  7.90000000E-01  7.20000000E-01
  7.90000000E-01  7.90000000E-01  7.20000000E-01  8.50000000E-01  7.90000000E-01
  7.20000000E-01  7.20000000E-01  8.50000000E-01  7.20000000E-01  8.50000000E-01
  7.90000000E-01  7.20000000E-01  7.20000000E-01  8.50000000E-01  7.90000000E-01
  7.20000000E-01  7.20000000E-01  8.50000000E-01  7.90000000E-01  7.20000000E-01
  7.20000000E-01  7.20000000E-01  7.20000000E-01  7.20000000E-01  8.50000000E-01
  7.90000000E-01  7.20000000E-01  7.20000000E-01  7.20000000E-01  7.20000000E-01
  7.20000000E-01  8.50000000E-01  7.90000000E-01  7.20000000E-01  7.20000000E-01
  7.20000000E-01  7.20000000E-01  7.20000000E-01  7.90000000E-01  7.20000000E-01
  8.50000000E-01  7.90000000E-01  7.20000000E-01  7.20000000E-01  7.20000000E-01
  8.50000000E-01  7.90000000E-01  7.20000000E-01  8.50000000E-01  7.90000000E-01
  7.20000000E-01  7.20000000E-01  7.20000000E-01  8.50000000E-01  7.90000000E-01
  7.20000000E-01  8.50000000E-01  7.90000000E-01  7.20000000E-01  7.20000000E-01
  7.20000000E-01  7.20000000E-01  7.20000000E-01  7.20000000E-01  7.20000000E-01
  7.20000000E-01  7.20000000E-01  8.50000000E-01  7.90000000E-01  7.20000000E-01
  7.20000000E-01  7.20000000E-01  7.20000000E-01  7.20000000E-01  8.50000000E-01
  7.90000000E-01  7.20000000E-01  7.20000000E-01  7.20000000E-01  7.20000000E-01
  7.20000000E-01  8.50000000E-01  7.90000000E-01  7.20000000E-01  7.20000000E-01
  7.20000000E-01  8.50000000E-01  7.20000000E-01  8.50000000E-01  7.90000000E-01
  7.20000000E-01  7.20000000E-01  7.20000000E-01  8.50000000E-01  8.50000000E-01
  7.20000000E-01  8.50000000E-01  7.90000000E-01  7.20000000E-01  7.20000000E-01
  7.20000000E-01  7.20000000E-01  7.20000000E-01  8.50000000E-01  7.90000000E-01
  7.20000000E-01  7.20000000E-01  8.50000000E-01  7.90000000E-01  7.20000000E-01
  7.20000000E-01  7.20000000E-01  7.20000000E-01  7.20000000E-01  8.50000000E-01
  7.90000000E-01  7.20000000E-01  7.20000000E-01  7.20000000E-01  7.20000000E-01
  7.20000000E-01  7.20000000E-01  7.20000000E-01  7.20000000E-01  7.20000000E-01
  8.50000000E-01  7.90000000E-01  7.20000000E-01  7.20000000E-01  7.20000000E-01
  8.50000000E-01  7.90000000E-01  7.20000000E-01  7.20000000E-01  7.20000000E-01
  7.20000000E-01  7.20000000E-01  7.20000000E-01  7.20000000E-01  7.20000000E-01
  7.20000000E-01  8.50000000E-01  7.90000000E-01
